<?xml version="1.0"?>
<VTKFile type="UnstructuredGrid"  version="0.1"  >
<UnstructuredGrid>
<Piece  NumberOfPoints="14727" NumberOfCells="58188">
<Points>
<DataArray  type="Float64"  NumberOfComponents="3"  format="ascii">0 0 0  0 1 0  1 1 0  1 0 0  0 8 0  0 9 0  1 9 0  1 8 0  8 0 0  8 1 0  9 1 0  9 0 0  8 8 0  8 9 0  9 9 0  9 8 0  0 0 8  0 1 8  1 1 8  1 0 8  0 8 8  0 9 8  1 9 8  1 8 8  8 0 8  8 1 8  9 1 8  9 0 8  8 8 8  8 9 8  9 9 8  9 8 8  0 0 9  0 9 9  9 9 9  9 0 9  8 9 9  8 0 9  9 9 17  9 0 17  8 9 17  8 0 17  0.2499999999994121 0 8  0.499999999998694 0 8  0.7499999999993416 0 8  1 0.2499999999994121 8  1 0.499999999998694 8  1 0.7499999999993416 8  0.7500000000003465 1 8  0.5000000000020591 1 8  0.2500000000010404 1 8  0 0.7500000000003465 8  0 0.5000000000020591 8  0 0.2500000000010404 8  0 0 7.749999999998959  0 0 7.499999999997917  0 0 7.249999999996876  0 0 6.999999999996009  0 0 6.749999999997569  0 0 6.499999999999304  0 0 6.250000000001037  0 0 6.000000000002772  0 0 5.750000000004507  0 0 5.50000000000624  0 0 5.250000000007975  0 0 5.00000000000971  0 0 4.750000000011443  0 0 4.500000000013178  0 0 4.250000000014913  0 0 4.000000000016473  0 0 3.750000000015606  0 0 3.500000000014565  0 0 3.250000000013525  0 0 3.000000000012484  0 0 2.750000000011444  0 0 2.500000000010404  0 0 2.250000000009363  0 0 2.000000000008323  0 0 1.750000000007283  0 0 1.500000000006242  0 0 1.250000000005202  0 0 1.000000000004162  0 0 0.7500000000031211  0 0 0.500000000002081  0 0 0.2500000000010401  0 0.2499999999994121 0  0 0.499999999998694 0  0 0.7499999999993416 0  0.2499999999994121 1 0  0.499999999998694 1 0  0.7499999999993416 1 0  1 0.7500000000003465 0  1 0.5000000000020591 0  1 0.2500000000010404 0  0.7500000000003465 0 0  0.5000000000020591 0 0  0.2500000000010404 0 0  1 0 0.249999999999525  1 0 0.4999999999989862  1 0 0.7499999999985938  1 0 0.9999999999981904  1 0 1.249999999997483  1 0 1.499999999996754  1 0 1.749999999996025  1 0 1.999999999995296  1 0 2.249999999994567  1 0 2.499999999993839  1 0 2.74999999999311  1 0 2.999999999992381  1 0 3.249999999991652  1 0 3.499999999990923  1 0 3.749999999990194  1 0 3.999999999989552  1 0 4.249999999990124  1 0 4.499999999990782  1 0 4.749999999991441  1 0 4.9999999999921  1 0 5.249999999992758  1 0 5.499999999993416  1 0 5.749999999994074  1 0 5.999999999994733  1 0 6.249999999995391  1 0 6.499999999996049  1 0 6.749999999996708  1 0 6.999999999997367  1 0 7.249999999998025  1 0 7.499999999998683  1 0 7.749999999999342  1 1 7.749999999998959  1 1 7.499999999997917  1 1 7.249999999996876  1 1 6.999999999996009  1 1 6.749999999997569  1 1 6.499999999999304  1 1 6.250000000001037  1 1 6.000000000002772  1 1 5.750000000004507  1 1 5.50000000000624  1 1 5.250000000007975  1 1 5.00000000000971  1 1 4.750000000011443  1 1 4.500000000013178  1 1 4.250000000014913  1 1 4.000000000016473  1 1 3.750000000015606  1 1 3.500000000014565  1 1 3.250000000013525  1 1 3.000000000012484  1 1 2.750000000011444  1 1 2.500000000010404  1 1 2.250000000009363  1 1 2.000000000008323  1 1 1.750000000007283  1 1 1.500000000006242  1 1 1.250000000005202  1 1 1.000000000004162  1 1 0.7500000000031211  1 1 0.500000000002081  1 1 0.2500000000010401  0 1 0.249999999999525  0 1 0.4999999999989862  0 1 0.7499999999985938  0 1 0.9999999999981904  0 1 1.249999999997483  0 1 1.499999999996754  0 1 1.749999999996025  0 1 1.999999999995296  0 1 2.249999999994567  0 1 2.499999999993839  0 1 2.74999999999311  0 1 2.999999999992381  0 1 3.249999999991652  0 1 3.499999999990923  0 1 3.749999999990194  0 1 3.999999999989552  0 1 4.249999999990124  0 1 4.499999999990782  0 1 4.749999999991441  0 1 4.9999999999921  0 1 5.249999999992758  0 1 5.499999999993416  0 1 5.749999999994074  0 1 5.999999999994733  0 1 6.249999999995391  0 1 6.499999999996049  0 1 6.749999999996708  0 1 6.999999999997367  0 1 7.249999999998025  0 1 7.499999999998683  0 1 7.749999999999342  0.2499999999994121 8 0  0.499999999998694 8 0  0.7499999999993416 8 0  1 8.25 0  1 8.5 0  1 8.75 0  0.7500000000003465 9 0  0.5000000000020591 9 0  0.2500000000010404 9 0  0 8.75 0  0 8.5 0  0 8.25 0  0 8 0.249999999999525  0 8 0.4999999999989862  0 8 0.7499999999985938  0 8 0.9999999999981904  0 8 1.249999999997483  0 8 1.499999999996754  0 8 1.749999999996025  0 8 1.999999999995296  0 8 2.249999999994567  0 8 2.499999999993839  0 8 2.74999999999311  0 8 2.999999999992381  0 8 3.249999999991652  0 8 3.499999999990923  0 8 3.749999999990194  0 8 3.999999999989552  0 8 4.249999999990124  0 8 4.499999999990782  0 8 4.749999999991441  0 8 4.9999999999921  0 8 5.249999999992758  0 8 5.499999999993416  0 8 5.749999999994074  0 8 5.999999999994733  0 8 6.249999999995391  0 8 6.499999999996049  0 8 6.749999999996708  0 8 6.999999999997367  0 8 7.249999999998025  0 8 7.499999999998683  0 8 7.749999999999342  0.2499999999994121 8 8  0.499999999998694 8 8  0.7499999999993416 8 8  1 8.25 8  1 8.5 8  1 8.75 8  0.7500000000003465 9 8  0.5000000000020591 9 8  0.2500000000010404 9 8  0 8.75 8  0 8.5 8  0 8.25 8  1 9 7.749999999998959  1 9 7.499999999997917  1 9 7.249999999996876  1 9 6.999999999996009  1 9 6.749999999997569  1 9 6.499999999999304  1 9 6.250000000001037  1 9 6.000000000002772  1 9 5.750000000004507  1 9 5.50000000000624  1 9 5.250000000007975  1 9 5.00000000000971  1 9 4.750000000011443  1 9 4.500000000013178  1 9 4.250000000014913  1 9 4.000000000016473  1 9 3.750000000015606  1 9 3.500000000014565  1 9 3.250000000013525  1 9 3.000000000012484  1 9 2.750000000011444  1 9 2.500000000010404  1 9 2.250000000009363  1 9 2.000000000008323  1 9 1.750000000007283  1 9 1.500000000006242  1 9 1.250000000005202  1 9 1.000000000004162  1 9 0.7500000000031211  1 9 0.500000000002081  1 9 0.2500000000010401  0 9 0.249999999999525  0 9 0.4999999999989862  0 9 0.7499999999985938  0 9 0.9999999999981904  0 9 1.249999999997483  0 9 1.499999999996754  0 9 1.749999999996025  0 9 1.999999999995296  0 9 2.249999999994567  0 9 2.499999999993839  0 9 2.74999999999311  0 9 2.999999999992381  0 9 3.249999999991652  0 9 3.499999999990923  0 9 3.749999999990194  0 9 3.999999999989552  0 9 4.249999999990124  0 9 4.499999999990782  0 9 4.749999999991441  0 9 4.9999999999921  0 9 5.249999999992758  0 9 5.499999999993416  0 9 5.749999999994074  0 9 5.999999999994733  0 9 6.249999999995391  0 9 6.499999999996049  0 9 6.749999999996708  0 9 6.999999999997367  0 9 7.249999999998025  0 9 7.499999999998683  0 9 7.749999999999342  1 8 7.749999999998959  1 8 7.499999999997917  1 8 7.249999999996876  1 8 6.999999999996009  1 8 6.749999999997569  1 8 6.499999999999304  1 8 6.250000000001037  1 8 6.000000000002772  1 8 5.750000000004507  1 8 5.50000000000624  1 8 5.250000000007975  1 8 5.00000000000971  1 8 4.750000000011443  1 8 4.500000000013178  1 8 4.250000000014913  1 8 4.000000000016473  1 8 3.750000000015606  1 8 3.500000000014565  1 8 3.250000000013525  1 8 3.000000000012484  1 8 2.750000000011444  1 8 2.500000000010404  1 8 2.250000000009363  1 8 2.000000000008323  1 8 1.750000000007283  1 8 1.500000000006242  1 8 1.250000000005202  1 8 1.000000000004162  1 8 0.7500000000031211  1 8 0.500000000002081  1 8 0.2500000000010401  0.2499999999993843 0 8  0.4999999999987008 0 8  0.7499999999982235 0 8  0.9999999999978253 0 8  1.249999999997119 0 8  1.499999999996104 0 8  1.749999999995089 0 8  1.999999999994075 0 8  2.24999999999306 0 8  2.499999999992045 0 8  2.74999999999103 0 8  2.999999999990016 0 8  3.249999999989001 0 8  3.499999999987986 0 8  3.749999999986972 0 8  3.999999999985957 0 8  4.249999999984942 0 8  4.499999999984101 0 8  4.749999999985379 0 8  4.999999999986831 0 8  5.249999999988283 0 8  5.499999999989734 0 8  5.749999999991186 0 8  5.999999999992638 0 8  6.249999999994088 0 8  6.49999999999554 0 8  6.749999999996993 0 8  6.999999999998443 0 8  7.249999999999895 0 8  7.500000000001347 0 8  7.7500000000028 0 8  8.000000000003981 0 8  8.250000000003045 0 8  8.500000000002029 0 8  8.750000000001013 0 8  9 0.2499999999993843 8  9 0.4999999999987008 8  9 0.7499999999982235 8  9 0.9999999999978253 8  9 1.249999999997119 8  9 1.499999999996104 8  9 1.749999999995089 8  9 1.999999999994075 8  9 2.24999999999306 8  9 2.499999999992045 8  9 2.74999999999103 8  9 2.999999999990016 8  9 3.249999999989001 8  9 3.499999999987986 8  9 3.749999999986972 8  9 3.999999999985957 8  9 4.249999999984942 8  9 4.499999999984101 8  9 4.749999999985379 8  9 4.999999999986831 8  9 5.249999999988283 8  9 5.499999999989734 8  9 5.749999999991186 8  9 5.999999999992638 8  9 6.249999999994088 8  9 6.49999999999554 8  9 6.749999999996993 8  9 6.999999999998443 8  9 7.249999999999895 8  9 7.500000000001347 8  9 7.7500000000028 8  9 8.000000000003981 8  9 8.250000000003045 8  9 8.500000000002029 8  9 8.750000000001013 8  8.750000000000954 9 8  8.500000000001908 9 8  8.250000000002862 9 8  8.000000000003816 9 8  7.75000000000477 9 8  7.500000000005723 9 8  7.250000000006676 9 8  7.00000000000763 9 8  6.750000000008584 9 8  6.500000000009538 9 8  6.250000000010492 9 8  6.000000000011446 9 8  5.750000000012399 9 8  5.500000000013353 9 8  5.250000000014307 9 8  5.000000000015261 9 8  4.750000000016215 9 8  4.500000000016995 9 8  4.250000000015657 9 8  4.000000000014143 9 8  3.750000000012631 9 8  3.500000000011117 9 8  3.250000000009606 9 8  3.000000000008094 9 8  2.750000000006581 9 8  2.500000000005068 9 8  2.250000000003555 9 8  2.000000000002043 9 8  1.75000000000053 9 8  1.499999999999018 9 8  1.249999999997504 9 8  0.9999999999962625 9 8  0.7499999999971383 9 8  0.4999999999980922 9 8  0.2499999999990461 9 8  0 8.750000000000954 8  0 8.500000000001908 8  0 8.250000000002862 8  0 8.000000000003816 8  0 7.75000000000477 8  0 7.500000000005723 8  0 7.250000000006676 8  0 7.00000000000763 8  0 6.750000000008584 8  0 6.500000000009538 8  0 6.250000000010492 8  0 6.000000000011446 8  0 5.750000000012399 8  0 5.500000000013353 8  0 5.250000000014307 8  0 5.000000000015261 8  0 4.750000000016215 8 
[...]
<PointData  Vectors="u"> 
<DataArray  type="Float64"  Name="u"  NumberOfComponents="3" format="ascii">0.0000000000000000e+00 0.0000000000000000e+00 0.0000000000000000e+00  0.0000000000000000e+00 0.0000000000000000e+00 0.0000000000000000e+00  0.0000000000000000e+00 0.0000000000000000e+00 0.0000000000000000e+00  0.0000000000000000e+00 0.0000000000000000e+00 0.0000000000000000e+00  0.0000000000000000e+00 0.0000000000000000e+00 0.0000000000000000e+00  0.0000000000000000e+00 0.0000000000000000e+00 0.0000000000000000e+00  0.0000000000000000e+00 0.0000000000000000e+00 0.0000000000000000e+00  0.0000000000000000e+00 0.0000000000000000e+00 0.0000000000000000e+00  0.0000000000000000e+00 0.0000000000000000e+00 0.0000000000000000e+00  0.0000000000000000e+00 0.0000000000000000e+00 0.0000000000000000e+00  0.0000000000000000e+00 0.0000000000000000e+00 0.0000000000000000e+00  0.0000000000000000e+00 0.0000000000000000e+00 0.0000000000000000e+00  0.0000000000000000e+00 0.0000000000000000e+00 0.0000000000000000e+00  0.0000000000000000e+00 0.0000000000000000e+00 0.0000000000000000e+00  0.0000000000000000e+00 0.0000000000000000e+00 0.0000000000000000e+00  0.0000000000000000e+00 0.0000000000000000e+00 0.0000000000000000e+00  -1.4256436974954617e-01 -1.4391887848700372e-01 -3.5381259373092305e-01  -1.0106659011066993e-01 -1.0433078196110497e-01 -6.7317477041542020e-02  -1.0281570476653724e-01 -1.0200507723538667e-01 2.2467256813802024e-02  -1.0323004965659680e-01 -9.9840526727840356e-02 -6.7546414997191787e-02  -9.8291083479427679e-02 1.0745844273361643e-01 -6.7298341797040265e-02  -1.4223904519162336e-01 1.4603630746336768e-01 -3.5201104232092267e-01  -1.0121218223896067e-01 1.0336183707611185e-01 -6.8243715990903994e-02  -1.0055341268244222e-01 1.0588244121320275e-01 2.2965677763162638e-02  1.0912039774688136e-01 -5.8278493347492841e-02 -6.3303693754758639e-02  1.0672968390278108e-01 -6.0433657125223993e-02 1.9119156656675386e-02  1.0453746780806289e-01 -6.0554198558514162e-02 -7.1887395846752286e-02  1.4963031557300766e-01 -9.9084999495319473e-02 -3.4921267851943388e-01  1.0560868695801016e-01 6.2030629335904940e-02 2.0531467905309950e-02  1.0812070344834987e-01 5.9639703182470298e-02 -6.2627353481248454e-02  1.4682116027884587e-01 1.0392128545283859e-01 -3.4966936491176204e-01  1.0323631964141479e-01 6.2825358275717461e-02 -7.1003950956209358e-02  8.7343914194305428e-02 8.3318613960398177e-02 -5.4701002347561811e-01  8.6938050247620163e-02 -8.1017368861135974e-02 -5.4138623992904711e-01  -6.4647470295151818e-02 1.7729452602584413e-03 -5.8558448479425573e-01  -6.5173317914437909e-02 2.0224786241329245e-03 -5.8612925143717909e-01  -6.8879614446578391e-02 8.5292618122123566e-04 5.1353904284975310e+04  -6.9663285140480036e-02 3.3613302098758091e-03 5.1353903454960651e+04  4.1083617813452485e+05 1.9224839924480708e-03 -6.3079051779601447e-01  4.1083617766060610e+05 5.8592280570538609e-04 -6.3160854824074875e-01  4.1083617813911120e+05 -7.7292182481188652e-04 5.1353902353497055e+04  4.1083617766458186e+05 3.3877640869879508e-03 5.1353901547719906e+04  -1.2288484405183478e-01 -1.1998820263555129e-01 -1.6762754868049909e-01  -1.0968148907096890e-01 -1.0702260104881031e-01 -1.2488960950169962e-01  -1.0447515971035433e-01 -1.0233526854905359e-01 -9.4882149653047268e-02  -1.0455571131214932e-01 -1.0053546056977418e-01 -4.4761739211677261e-02  -1.0449039602528643e-01 -1.0150374604589008e-01 -2.2718146541982023e-02  -1.0327773421124918e-01 -1.0175067403488340e-01 -6.5964640403472457e-04  -1.0253406285901863e-01 -1.0255233958243687e-01 -5.5847818643546640e-04  -1.0228861759330528e-01 -1.0436998428455380e-01 -2.2739293388736002e-02  -1.0186553194738350e-01 -1.0539101747080981e-01 -4.4612214172066116e-02  -1.0431333064307291e-01 -1.0587340619186469e-01 -9.4719630028994112e-02  -1.0791577788914822e-01 -1.1078108816267590e-01 -1.2507498634119701e-01  -1.1992352811979441e-01 -1.2372079875195036e-01 -1.6740563995405891e-01  -8.2001467833334174e-02 -8.1044739390390183e-02 -2.2357340784763016e-01  -5.6367720542468074e-02 -5.5737895113371710e-02 -1.7959397323539333e-01  -3.4489501806460224e-02 -3.4847991178517806e-02 -1.5993451841454165e-01  -1.5254724128723337e-02 -1.5375312478831992e-02 -1.4386721129601093e-01  1.7843800024294611e-03 2.1355306975617237e-03 -1.3154561537684026e-01  1.6828452865874539e-02 1.6764849004576487e-02 -1.1959332912237861e-01  2.9313669793569086e-02 2.9048493868415525e-02 -1.0827472295505246e-01  3.9913983846249348e-02 3.9522657015073681e-02 -9.7593249857192699e-02  4.8648362582379950e-02 4.8408669018895935e-02 -8.7297688568118245e-02  5.5326006618009217e-02 5.4903422213912402e-02 -7.7834211427623673e-02  6.0529064395211114e-02 6.0212216994860568e-02 -6.8874673162105729e-02  6.3881764830271526e-02 6.3345006936651418e-02 -6.0228420774508906e-02  6.5922613005206979e-02 6.5396721179049405e-02 -5.2284275368792869e-02  6.6578001008396767e-02 6.6246517717357359e-02 -4.4893298094868070e-02  6.5839848337252524e-02 6.5707408584648463e-02 -3.7666988942703310e-02  6.4172862888543319e-02 6.3954555678580924e-02 -3.1291045547327680e-02  6.1614636952902431e-02 6.1522082235834566e-02 -2.5332715583409087e-02  5.8180958471410908e-02 5.8151473161828296e-02 -1.9851164614277397e-02  5.4060130861165519e-02 5.4225466104824607e-02 -1.5045798505469525e-02  4.9497695511775498e-02 4.9514971823901008e-02 -1.0700495077309354e-02  4.4416153139903755e-02 4.4507201909735047e-02 -6.8750566672636220e-03  3.9109602327520976e-02 3.9172683975460136e-02 -3.6862331408003936e-03  3.3632504590197766e-02 3.3835397451247640e-02 -9.2493034147217673e-04  2.8162077492518277e-02 2.8403647003352000e-02 1.2585820942079252e-03  2.2853942411145772e-02 2.3063279189331324e-02 2.9256299965785743e-03  1.7782100806637464e-02 1.7912521209154608e-02 4.0889736133967640e-03  1.3100842279630005e-02 1.3205065987975013e-02 4.7119970115259962e-03  8.9304143936809084e-03 9.0158035353180930e-03 4.7867241216984968e-03  5.4845255037236969e-03 5.6814075724276073e-03 4.2720195032628569e-03  2.6976260617198543e-03 2.8556469321329779e-03 3.3077878099639444e-03  1.0316319596130902e-03 1.0486344272818543e-03 1.9698304004445270e-03  0.0000000000000000e+00 0.0000000000000000e+00 0.0000000000000000e+00  0.0000000000000000e+00 0.0000000000000000e+00 0.0000000000000000e+00  0.0000000000000000e+00 0.0000000000000000e+00 0.0000000000000000e+00  0.0000000000000000e+00 0.0000000000000000e+00 0.0000000000000000e+00  0.0000000000000000e+00 0.0000000000000000e+00 0.0000000000000000e+00  0.0000000000000000e+00 0.0000000000000000e+00 0.0000000000000000e+00  0.0000000000000000e+00 0.0000000000000000e+00 0.0000000000000000e+00  0.0000000000000000e+00 0.0000000000000000e+00 0.0000000000000000e+00  0.0000000000000000e+00 0.0000000000000000e+00 0.0000000000000000e+00  0.0000000000000000e+00 0.0000000000000000e+00 0.0000000000000000e+00  0.0000000000000000e+00 0.0000000000000000e+00 0.0000000000000000e+00  0.0000000000000000e+00 0.0000000000000000e+00 0.0000000000000000e+00  1.7144338788622729e-03 -5.9778355880716954e-04 -2.6432663585404777e-03  3.8453409469580645e-03 1.1589916777222493e-03 -4.6823086508121451e-03  6.8711376725571899e-03 4.0072973087291750e-03 -7.0863380440674955e-03  1.0585254382498905e-02 7.7209000068649645e-03 -9.2915887542191697e-03  1.4999999401229033e-02 1.2117693261299609e-02 -1.1728356465612164e-02  1.9929046750901947e-02 1.7175559207209493e-02 -1.4091429152974108e-02  2.5328368822037751e-02 2.2502995813491782e-02 -1.6500918168459833e-02  3.0940522217861796e-02 2.8076976256128799e-02 -1.8847226320906265e-02  3.6617623399834369e-02 3.3834700977438757e-02 -2.1298529950661567e-02  4.2314041683713069e-02 3.9533556349822821e-02 -2.3729839877598052e-02  4.7912762915665555e-02 4.5081357382206096e-02 -2.6195244184982446e-02  5.3240659070868231e-02 5.0430284175338569e-02 -2.8625883980174658e-02  5.8285368908638079e-02 5.5354114464514048e-02 -3.1068369728333739e-02  6.2554684177485664e-02 5.9567988637580005e-02 -3.3357571436386776e-02  6.6193652712679241e-02 6.3359563167273966e-02 -3.5758654960846327e-02  6.9215160174372015e-02 6.6181454555508265e-02 -3.8502648772405147e-02  7.1136145359365840e-02 6.7907212607416167e-02 -4.0520884039904524e-02  7.1920694117692308e-02 6.8899351818588167e-02 -4.2948166585439707e-02  7.1887252099001195e-02 6.8523835733016028e-02 -4.5823080077701833e-02  7.0099125402955875e-02 6.6698907131695989e-02 -4.7656893162591571e-02  6.6506661697019187e-02 6.3497841540279112e-02 -5.0121437410733834e-02  6.2090753256094734e-02 5.8677623193464416e-02 -5.2384003546611047e-02  5.5389242434473497e-02 5.2374648432643479e-02 -5.4654696780242540e-02  4.6960899758678995e-02 4.4288362059909658e-02 -5.7139512551948553e-02  3.6494392521480602e-02 3.3834568758307551e-02 -6.0444004979348570e-02  2.4494139716691139e-02 2.0835122205561028e-02 -6.2777560706047897e-02  9.7304836754798091e-03 6.2163396017439225e-03 -6.3963171634915328e-02  -7.7070433478448868e-03 -1.0991384695829843e-02 -6.5718076935184208e-02  -2.7625209815604783e-02 -3.0332225630434785e-02 -6.7116395509706786e-02  -5.0338201760093265e-02 -5.2549749415712818e-02 -6.7984693062129523e-02  -7.6055396135987052e-02 -7.6124552315823837e-02 -6.7789435758365532e-02  -7.8608137360844862e-02 -7.8090724205058790e-02 2.1680262778546011e-02  -5.5081385435989214e-02 -5.4674619389476334e-02 1.8688156592715367e-02  -3.3182125843856027e-02 -3.2988720550122218e-02 1.3235978118390689e-02  -1.3393756605682103e-02 -1.3310871919469999e-02 6.9487771066378675e-03  4.2086025547502298e-03 4.6929277061654624e-03 5.3691123549091566e-04  1.9266788793274467e-02 1.9700568528957157e-02 -5.7840788696464692e-03  3.2066870028735206e-02 3.2078301992321749e-02 -1.1834389161673464e-02  4.2643421744405607e-02 4.2839751850623449e-02 -1.7565415889724940e-02  5.1299695068937085e-02 5.1431528421870529e-02 -2.3193046921946528e-02  5.8035619601739259e-02 5.7936242955207384e-02 -2.7578555949147359e-02  6.3374796886381354e-02 6.3121143506258956e-02 -3.1805448556406803e-02  6.6741543149582722e-02 6.6556490661752066e-02 -3.5307949359969309e-02  6.8707696200184534e-02 6.8610432585068368e-02 -3.8823618155683658e-02  6.9303127953541335e-02 6.9093806820714740e-02 -4.1423409295047862e-02  6.8752953656529878e-02 6.8597203205694568e-02 -4.3814507245941735e-02  6.7060931012053862e-02 6.6924920788213799e-02 -4.5261721197666686e-02  6.4470227889785084e-02 6.4571780732411405e-02 -4.6288559864411827e-02  6.1043388422519503e-02 6.1201122740678897e-02 -4.6864317636004509e-02  5.7007282945867176e-02 5.7137438916360056e-02 -4.6968951375886879e-02  5.2338705699955801e-02 5.2526878542460076e-02 -4.6458440775740427e-02  4.7304197625884739e-02 4.7537483948908436e-02 -4.5392207757891975e-02  4.2061003426814354e-02 4.2201219548458353e-02 -4.3835765525530215e-02  3.6608666720381537e-02 3.6755736054185847e-02 -4.1637363838377996e-02  3.1123439252894604e-02 3.1313812595072016e-02 -3.9073834800120118e-02  2.5782093643105249e-02 2.5979477791959693e-02 -3.5917241775628807e-02  2.0767458544238320e-02 2.0964725580332345e-02 -3.2152348240036772e-02  1.6121376303735273e-02 1.6286912336559222e-02 -2.7936603581148127e-02  1.1778830245182881e-02 1.2076658318703939e-02 -2.3234796387917724e-02  8.3615851847571310e-03 8.4400467178086039e-03 -1.8078986019991111e-02  5.4946055649596716e-03 5.6081911297762559e-03 -1.2602747023059628e-02  3.3003214272209623e-03 3.2040214144470626e-03 -6.9499925453863033e-03  -5.7414109712785330e-04 1.7574533036791506e-03 -2.3587598238668005e-03  1.0953562000796488e-03 3.8971431531255513e-03 -4.5266566409002404e-03  3.9485662136353348e-03 6.8386787231614100e-03 -6.7462259062052781e-03  7.6849730445257142e-03 1.0571362858887729e-02 -9.4872127435007246e-03  1.2055481572254147e-02 1.5225393737679293e-02 -1.1657762025637527e-02  1.7035200335407331e-02 2.0129812834649253e-02 -1.4134303779455839e-02  2.2329939798327852e-02 2.5450763591803212e-02 -1.6435653272736009e-02  2.7972690304565770e-02 3.1028442384415673e-02 -1.8914069786700374e-02  3.3689820454426526e-02 3.6774547113338080e-02 -2.1287723916032182e-02  3.9378327077658620e-02 4.2513338524614162e-02 -2.3721245749395395e-02  4.4987405571724808e-02 4.8033970277122112e-02 -2.6084071960320022e-02  5.0246433198667922e-02 5.3339383417774694e-02 -2.8586333222548482e-02  5.5206976014056656e-02 5.8181063014750040e-02 -3.0819819562097037e-02  5.9566689455186971e-02 6.2556488048034917e-02 -3.3392866753699416e-02  6.3333127329534722e-02 6.6185028092801954e-02 -3.5539830892842642e-02  6.6171086908878102e-02 6.9103788787453588e-02 -3.8253939920213663e-02  6.7984509599326684e-02 7.0908348693425396e-02 -4.0274778035973423e-02  6.8981022873052175e-02 7.1569409960623026e-02 -4.2661607795364112e-02  6.8651959721175632e-02 7.1293945956402816e-02 -4.5135511953756910e-02  6.6947102479404566e-02 6.9487450632618186e-02 -4.8221954903159260e-02  6.3762137979343311e-02 6.6277619275355207e-02 -5.0306543277225432e-02  5.8982547126002469e-02 6.1778910225058332e-02 -5.3242457478586233e-02  5.2340635723497370e-02 5.5176198606399801e-02 -5.4924608519663187e-02  4.4196707656113561e-02 4.6694426728186328e-02 -5.7312627717742023e-02  3.3683262624600176e-02 3.6218275034357983e-02 -6.0579882577330969e-02  2.0666034762408088e-02 2.4190624485147742e-02 -6.2880761421704373e-02  6.1443130283440313e-03 9.5300784617836243e-03 -6.4180990706781252e-02  -1.0843558311744590e-02 -7.5216999210851324e-03 -6.6697617060012759e-02  -3.0217133612369513e-02 -2.7140765014831734e-02 -6.7803604243540622e-02  -5.3049678008840993e-02 -5.0563061852385641e-02 -6.8576883372071865e-02  -7.7172607348886965e-02 -7.6574979232299098e-02 -6.8043675541259216e-02  0.0000000000000000e+00 0.0000000000000000e+00 0.0000000000000000e+00  0.0000000000000000e+00 0.0000000000000000e+00 0.0000000000000000e+00  0.0000000000000000e+00 0.0000000000000000e+00 0.0000000000000000e+00  0.0000000000000000e+00 0.0000000000000000e+00 0.0000000000000000e+00  0.0000000000000000e+00 0.0000000000000000e+00 0.0000000000000000e+00  0.0000000000000000e+00 0.0000000000000000e+00 0.0000000000000000e+00  0.0000000000000000e+00 0.0000000000000000e+00 0.0000000000000000e+00  0.0000000000000000e+00 0.0000000000000000e+00 0.0000000000000000e+00  0.0000000000000000e+00 0.0000000000000000e+00 0.0000000000000000e+00  0.0000000000000000e+00 0.0000000000000000e+00 0.0000000000000000e+00  0.0000000000000000e+00 0.0000000000000000e+00 0.0000000000000000e+00  0.0000000000000000e+00 0.0000000000000000e+00 0.0000000000000000e+00  -6.1900890142102733e-04 -1.6921135185768183e-03 -2.5922645100164661e-03  1.1252570225841676e-03 -3.7778534221860915e-03 -4.6772083297291983e-03  4.0350205096390942e-03 -6.8121305373765300e-03 -6.9366468227739014e-03  7.7076955405253975e-03 -1.0521559014798823e-02 -9.1249993427070832e-03  1.2266600638467481e-02 -1.4895532957418564e-02 -1.1545078392018179e-02  1.7238099071338282e-02 -1.9816497033667970e-02 -1.3703655305237126e-02  2.2682494341726294e-02 -2.5090336567721951e-02 -1.6255789347111971e-02  2.8344953609052734e-02 -3.0617317149465837e-02 -1.8616100582349734e-02  3.4186942551121785e-02 -3.6264770836888893e-02 -2.1002036980491291e-02  3.9914622513852659e-02 -4.1891890880216262e-02 -2.3476017189581918e-02  4.5555078108885691e-02 -4.7346438731938091e-02 -2.5838289954513483e-02  5.0922514338716189e-02 -5.2619492207937352e-02 -2.8337580994350086e-02  5.5948470027501043e-02 -5.7380416522368555e-02 -3.0545352872193791e-02  6.0187519624410955e-02 -6.1544698548476037e-02 -3.3288535549294479e-02  6.4016667060080898e-02 -6.5168551490438806e-02 -3.5650119373422946e-02  6.6720233817048766e-02 -6.7716303964263841e-02 -3.8251602233291541e-02  6.8812146590118514e-02 -6.9513999791153622e-02 -4.0182712711014333e-02  6.9860747548205829e-02 -7.0351645514263858e-02 -4.2642837713151312e-02  6.9400191974521408e-02 -6.9850154276736687e-02 -4.4735510864484872e-02  6.8002171506270373e-02 -6.8065756960092427e-02 -4.7098798420458582e-02  6.5257652192767940e-02 -6.4682737810253368e-02 -4.9584921580910636e-02  6.0409196961976108e-02 -6.0000981212919358e-02 -5.1945085385854295e-02  5.4110181760394852e-02 -5.3218963331763756e-02 -5.4310551113110686e-02  4.6135743085555056e-02 -4.4583854384802869e-02 -5.6894073029859958e-02  3.5714643292807310e-02 -3.4632993852596973e-02 -6.0100062437111558e-02  2.3203934154242153e-02 -2.1880724599888064e-02 -6.1710370937460700e-02  8.3630462417210744e-03 -6.4403294760158490e-03 -6.4760501709433094e-02  -9.3397781793202808e-03 1.0940000340716339e-02 -6.5979235182215643e-02  -2.8626181201541308e-02 3.0773710700263104e-02 -6.7002605353007449e-02  -5.0644223864963589e-02 5.3491249154025297e-02 -6.7686754165364807e-02  -7.4426178624409367e-02 7.9555268536239454e-02 -6.7566170319695210e-02  -9.9256475354231807e-02 1.0866141006279083e-01 -4.4424896196173104e-02  -9.9754369632616857e-02 1.0811896824750231e-01 -2.2613227213358653e-02  -1.0018303839780257e-01 1.0629600338793571e-01 -1.8313847391495598e-04  -1.0088111927625902e-01 1.0555105714422060e-01 -2.7722879057120027e-04  -1.0215288707443994e-01 1.0525555490041003e-01 -2.2608582190808923e-02  -1.0281336195662476e-01 1.0441184485548559e-01 -4.5101016519738676e-02  -1.0181024048605260e-01 1.0629808653708483e-01 -9.5316048440039242e-02  -1.0630504047977732e-01 1.1073603752630459e-01 -1.2498717899941167e-01  -1.1951145261550308e-01 1.2149002571951853e-01 -1.7011765984093002e-01  -1.1712838315370362e-01 1.2697649910691758e-01 -1.6813098080438715e-01  -1.0531998069466295e-01 1.1382025324824860e-01 -1.2545715514099701e-01  -1.0161629662246598e-01 1.0898654664448978e-01 -9.4740898270851442e-02  -7.3763992776831530e-02 7.9629440121007866e-02 -6.8526014250569922e-02  -4.8030679976383148e-02 5.5722969346240839e-02 -6.8460600744560215e-02  -2.5658352992469848e-02 3.4043928899779856e-02 -6.7818249193793881e-02  -5.5101550502296764e-03 1.3625742571597784e-02 -6.6650130773905039e-02  1.1693105767746292e-02 -4.1004517915335555e-03 -6.5597891979530670e-02  2.6285909976187294e-02 -1.9007080203060064e-02 -6.2713228014660505e-02  3.8751849814609642e-02 -3.1325150679013647e-02 -6.0181918165753835e-02  4.9161526940214750e-02 -4.2096991954793987e-02 -5.8002707233796420e-02  5.7358961162500090e-02 -5.0680580248082030e-02 -5.5340725676999609e-02  6.3986878923212448e-02 -5.7166678873720012e-02 -5.3262623436982605e-02  6.8599039283484098e-02 -6.1990614109407427e-02 -5.1242630482624861e-02  7.1059720742789739e-02 -6.5157209013530476e-02 -4.9224165221901643e-02  7.2598315700286603e-02 -6.6989394340606329e-02 -4.6123709748581737e-02  7.2986117070781370e-02 -6.7593928008247497e-02 -4.4077583276172720e-02  7.2309054326963940e-02 -6.7152458604566742e-02 -4.1289975696768892e-02  7.0153348857329420e-02 -6.5082771664621786e-02 -3.8907073451338772e-02  6.7097753634342450e-02 -6.2317266059731452e-02 -3.6151518516945882e-02  6.3362492948467339e-02 -5.8796729665490960e-02 -3.3701862285720030e-02  5.9002466513860409e-02 -5.4516502980173742e-02 -3.1511236745186189e-02  5.3985169072416107e-02 -4.9795790892060557e-02 -2.8908129434249957e-02  4.8688604333117308e-02 -4.4596149619013925e-02 -2.6466635083362434e-02  4.3086437742393839e-02 -3.9079888368658729e-02 -2.4110242591752339e-02  3.7232761491923103e-02 -3.3481133962216310e-02 -2.1651272200803665e-02  3.1455401659846352e-02 -2.7752933365307597e-02 -1.9183880344268284e-02  2.5758804808834995e-02 -2.2251471673991486e-02 -1.6828432963577566e-02  2.0324437040138740e-02 -1.6975359229806652e-02 -1.4360106093103031e-02  1.5260392922809243e-02 -1.2091878689645017e-02 -1.1888159893559952e-02  1.0775506435060998e-02 -7.6508998753287653e-03 -9.2577568370688802e-03  7.0559320584072677e-03 -3.8507021846269423e-03 -6.8542576311742352e-03  3.9540217198076330e-03 -1.0701440820500040e-03 -4.8991867554930664e-03  1.7225438518947409e-03 5.7659383498176312e-04 -2.6710882069562493e-03  1.0549801095805962e-03 -9.8142308964300584e-04 2.0047091051227412e-03  2.7522130748303931e-03 -2.6033966087129746e-03 3.4355786434377747e-03  5.5306300557626349e-03 -5.4975889311112370e-03 4.2841076305359946e-