<?xml version="1.0"?>
<VTKFile type="UnstructuredGrid"  version="0.1"  >
<UnstructuredGrid>
<Piece  NumberOfPoints="14502" NumberOfCells="58361">
<Points>
<DataArray  type="Float64"  NumberOfComponents="3"  format="ascii">0 0 0  0 1 0  1 1 0  1 0 0  0 8 0  0 9 0  1 9 0  1 8 0  8 0 0  8 1 0  9 1 0  9 0 0  8 8 0  8 9 0  9 9 0  9 8 0  0 0 8  0 1 8  1 1 8  1 0 8  0 8 8  0 9 8  1 9 8  1 8 8  8 0 8  8 1 8  9 1 8  9 0 8  8 8 8  8 9 8  9 9 8  9 8 8  0 0 9  0 9 9  9 9 9  9 0 9  8 9 9  8 0 9  9 9 17  9 0 17  8 9 17  8 0 17  0.2499999999994121 0 0  0.499999999998694 0 0  0.7499999999993416 0 0  1 0.2499999999994121 0  1 0.499999999998694 0  1 0.7499999999993416 0  0.7500000000003465 1 0  0.5000000000020591 1 0  0.2500000000010404 1 0  0 0.7500000000003465 0  0 0.5000000000020591 0  0 0.2500000000010404 0  0 0 0.249999999999525  0 0 0.4999999999989862  0 0 0.7499999999985938  0 0 0.9999999999981904  0 0 1.249999999997483  0 0 1.499999999996754  0 0 1.749999999996025  0 0 1.999999999995296  0 0 2.249999999994567  0 0 2.499999999993839  0 0 2.74999999999311  0 0 2.999999999992381  0 0 3.249999999991652  0 0 3.499999999990923  0 0 3.749999999990194  0 0 3.999999999989552  0 0 4.249999999990124  0 0 4.499999999990782  0 0 4.749999999991441  0 0 4.9999999999921  0 0 5.249999999992758  0 0 5.499999999993416  0 0 5.749999999994074  0 0 5.999999999994733  0 0 6.249999999995391  0 0 6.499999999996049  0 0 6.749999999996708  0 0 6.999999999997367  0 0 7.249999999998025  0 0 7.499999999998683  0 0 7.749999999999342  0 0.2499999999994121 8  0 0.499999999998694 8  0 0.7499999999993416 8  0 1 7.749999999998959  0 1 7.499999999997917  0 1 7.249999999996876  0 1 6.999999999996009  0 1 6.749999999997569  0 1 6.499999999999304  0 1 6.250000000001037  0 1 6.000000000002772  0 1 5.750000000004507  0 1 5.50000000000624  0 1 5.250000000007975  0 1 5.00000000000971  0 1 4.750000000011443  0 1 4.500000000013178  0 1 4.250000000014913  0 1 4.000000000016473  0 1 3.750000000015606  0 1 3.500000000014565  0 1 3.250000000013525  0 1 3.000000000012484  0 1 2.750000000011444  0 1 2.500000000010404  0 1 2.250000000009363  0 1 2.000000000008323  0 1 1.750000000007283  0 1 1.500000000006242  0 1 1.250000000005202  0 1 1.000000000004162  0 1 0.7500000000031211  0 1 0.500000000002081  0 1 0.2500000000010401  0.2499999999994121 1 8  0.499999999998694 1 8  0.7499999999993416 1 8  1 0.7500000000003465 8  1 0.5000000000020591 8  1 0.2500000000010404 8  0.7500000000003465 0 8  0.5000000000020591 0 8  0.2500000000010404 0 8  1 0 7.749999999998959  1 0 7.499999999997917  1 0 7.249999999996876  1 0 6.999999999996009  1 0 6.749999999997569  1 0 6.499999999999304  1 0 6.250000000001037  1 0 6.000000000002772  1 0 5.750000000004507  1 0 5.50000000000624  1 0 5.250000000007975  1 0 5.00000000000971  1 0 4.750000000011443  1 0 4.500000000013178  1 0 4.250000000014913  1 0 4.000000000016473  1 0 3.750000000015606  1 0 3.500000000014565  1 0 3.250000000013525  1 0 3.000000000012484  1 0 2.750000000011444  1 0 2.500000000010404  1 0 2.250000000009363  1 0 2.000000000008323  1 0 1.750000000007283  1 0 1.500000000006242  1 0 1.250000000005202  1 0 1.000000000004162  1 0 0.7500000000031211  1 0 0.500000000002081  1 0 0.2500000000010401  1 1 0.249999999999525  1 1 0.4999999999989862  1 1 0.7499999999985938  1 1 0.9999999999981904  1 1 1.249999999997483  1 1 1.499999999996754  1 1 1.749999999996025  1 1 1.999999999995296  1 1 2.249999999994567  1 1 2.499999999993839  1 1 2.74999999999311  1 1 2.999999999992381  1 1 3.249999999991652  1 1 3.499999999990923  1 1 3.749999999990194  1 1 3.999999999989552  1 1 4.249999999990124  1 1 4.499999999990782  1 1 4.749999999991441  1 1 4.9999999999921  1 1 5.249999999992758  1 1 5.499999999993416  1 1 5.749999999994074  1 1 5.999999999994733  1 1 6.249999999995391  1 1 6.499999999996049  1 1 6.749999999996708  1 1 6.999999999997367  1 1 7.249999999998025  1 1 7.499999999998683  1 1 7.749999999999342  9 0.7500000000003465 0  9 0.5000000000020591 0  9 0.2500000000010404 0  8.75 0 0  8.5 0 0  8.25 0 0  8 0.2499999999994121 0  8 0.499999999998694 0  8 0.7499999999993416 0  8.25 1 0  8.5 1 0  8.75 1 0  8.75 0 8  8.5 0 8  8.25 0 8  8 0.2499999999994121 8  8 0.499999999998694 8  8 0.7499999999993416 8  8.25 1 8  8.5 1 8  8.75 1 8  9 0.7500000000003465 8  9 0.5000000000020591 8  9 0.2500000000010404 8  9 0 7.749999999998959  9 0 7.499999999997917  9 0 7.249999999996876  9 0 6.999999999996009  9 0 6.749999999997569  9 0 6.499999999999304  9 0 6.250000000001037  9 0 6.000000000002772  9 0 5.750000000004507  9 0 5.50000000000624  9 0 5.250000000007975  9 0 5.00000000000971  9 0 4.750000000011443  9 0 4.500000000013178  9 0 4.250000000014913  9 0 4.000000000016473  9 0 3.750000000015606  9 0 3.500000000014565  9 0 3.250000000013525  9 0 3.000000000012484  9 0 2.750000000011444  9 0 2.500000000010404  9 0 2.250000000009363  9 0 2.000000000008323  9 0 1.750000000007283  9 0 1.500000000006242  9 0 1.250000000005202  9 0 1.000000000004162  9 0 0.7500000000031211  9 0 0.500000000002081  9 0 0.2500000000010401  8 0 0.249999999999525  8 0 0.4999999999989862  8 0 0.7499999999985938  8 0 0.9999999999981904  8 0 1.249999999997483  8 0 1.499999999996754  8 0 1.749999999996025  8 0 1.999999999995296  8 0 2.249999999994567  8 0 2.499999999993839  8 0 2.74999999999311  8 0 2.999999999992381  8 0 3.249999999991652  8 0 3.499999999990923  8 0 3.749999999990194  8 0 3.999999999989552  8 0 4.249999999990124  8 0 4.499999999990782  8 0 4.749999999991441  8 0 4.9999999999921  8 0 5.249999999992758  8 0 5.499999999993416  8 0 5.749999999994074  8 0 5.999999999994733  8 0 6.249999999995391  8 0 6.499999999996049  8 0 6.749999999996708  8 0 6.999999999997367  8 0 7.249999999998025  8 0 7.499999999998683  8 0 7.749999999999342  8 1 7.749999999998959  8 1 7.499999999997917  8 1 7.249999999996876  8 1 6.999999999996009  8 1 6.749999999997569  8 1 6.499999999999304  8 1 6.250000000001037  8 1 6.000000000002772  8 1 5.750000000004507  8 1 5.50000000000624  8 1 5.250000000007975  8 1 5.00000000000971  8 1 4.750000000011443  8 1 4.500000000013178  8 1 4.250000000014913  8 1 4.000000000016473  8 1 3.750000000015606  8 1 3.500000000014565  8 1 3.250000000013525  8 1 3.000000000012484  8 1 2.750000000011444  8 1 2.500000000010404  8 1 2.250000000009363  8 1 2.000000000008323  8 1 1.750000000007283  8 1 1.500000000006242  8 1 1.250000000005202  8 1 1.000000000004162  8 1 0.7500000000031211  8 1 0.500000000002081  8 1 0.2500000000010401  9 1 0.249999999999525  9 1 0.4999999999989862  9 1 0.7499999999985938  9 1 0.9999999999981904  9 1 1.249999999997483  9 1 1.499999999996754  9 1 1.749999999996025  9 1 1.999999999995296  9 1 2.249999999994567  9 1 2.499999999993839  9 1 2.74999999999311  9 1 2.999999999992381  9 1 3.249999999991652  9 1 3.499999999990923  9 1 3.749999999990194  9 1 3.999999999989552  9 1 4.249999999990124  9 1 4.499999999990782  9 1 4.749999999991441  9 1 4.9999999999921  9 1 5.249999999992758  9 1 5.499999999993416  9 1 5.749999999994074  9 1 5.999999999994733  9 1 6.249999999995391  9 1 6.499999999996049  9 1 6.749999999996708  9 1 6.999999999997367  9 1 7.249999999998025  9 1 7.499999999998683  9 1 7.749999999999342  9 9 7.749999999998959  9 9 7.499999999997917  9 9 7.249999999996876  9 9 6.999999999996009  9 9 6.749999999997569  9 9 6.499999999999304  9 9 6.250000000001037  9 9 6.000000000002772  9 9 5.750000000004507  9 9 5.50000000000624  9 9 5.250000000007975  9 9 5.00000000000971  9 9 4.750000000011443  9 9 4.500000000013178  9 9 4.250000000014913  9 9 4.000000000016473  9 9 3.750000000015606  9 9 3.500000000014565  9 9 3.250000000013525  9 9 3.000000000012484  9 9 2.750000000011444  9 9 2.500000000010404  9 9 2.250000000009363  9 9 2.000000000008323  9 9 1.750000000007283  9 9 1.500000000006242  9 9 1.250000000005202  9 9 1.000000000004162  9 9 0.7500000000031211  9 9 0.500000000002081  9 9 0.2500000000010401  8 9 0.249999999999525  8 9 0.4999999999989862  8 9 0.7499999999985938  8 9 0.9999999999981904  8 9 1.249999999997483  8 9 1.499999999996754  8 9 1.749999999996025  8 9 1.999999999995296  8 9 2.249999999994567  8 9 2.499999999993839  8 9 2.74999999999311  8 9 2.999999999992381  8 9 3.249999999991652  8 9 3.499999999990923  8 9 3.749999999990194  8 9 3.999999999989552  8 9 4.249999999990124  8 9 4.499999999990782  8 9 4.749999999991441  8 9 4.9999999999921  8 9 5.249999999992758  8 9 5.499999999993416  8 9 5.749999999994074  8 9 5.999999999994733  8 9 6.249999999995391  8 9 6.499999999996049  8 9 6.749999999996708  8 9 6.999999999997367  8 9 7.249999999998025  8 9 7.499999999998683  8 9 7.749999999999342  8 8 7.749999999998959  8 8 7.499999999997917  8 8 7.249999999996876  8 8 6.999999999996009  8 8 6.749999999997569  8 8 6.499999999999304  8 8 6.250000000001037  8 8 6.000000000002772  8 8 5.750000000004507  8 8 5.50000000000624  8 8 5.250000000007975  8 8 5.00000000000971  8 8 4.750000000011443  8 8 4.500000000013178  8 8 4.250000000014913  8 8 4.000000000016473  8 8 3.750000000015606  8 8 3.500000000014565  8 8 3.250000000013525  8 8 3.000000000012484  8 8 2.750000000011444  8 8 2.500000000010404  8 8 2.250000000009363  8 8 2.000000000008323  8 8 1.750000000007283  8 8 1.500000000006242  8 8 1.250000000005202  8 8 1.000000000004162  8 8 0.7500000000031211  8 8 0.500000000002081  8 8 0.2500000000010401  9 8 0.249999999999525  9 8 0.4999999999989862  9 8 0.7499999999985938  9 8 0.9999999999981904  9 8 1.249999999997483  9 8 1.499999999996754  9 8 1.749999999996025  9 8 1.999999999995296  9 8 2.249999999994567  9 8 2.499999999993839  9 8 2.74999999999311  9 8 2.999999999992381  9 8 3.249999999991652  9 8 3.499999999990923  9 8 3.749999999990194  9 8 3.999999999989552  9 8 4.249999999990124  9 8 4.499999999990782  9 8 4.749999999991441  9 8 4.9999999999921  9 8 5.249999999992758  9 8 5.499999999993416  9 8 5.749999999994074  9 8 5.999999999994733  9 8 6.249999999995391  9 8 6.499999999996049  9 8 6.749999999996708  9 8 6.999999999997367  9 8 7.2499999999980
[...]
<PointData  Vectors="u"> 
<DataArray  type="Float64"  Name="u"  NumberOfComponents="3" format="ascii">0.0000000000000000e+00 0.0000000000000000e+00 0.0000000000000000e+00  0.0000000000000000e+00 0.0000000000000000e+00 0.0000000000000000e+00  0.0000000000000000e+00 0.0000000000000000e+00 0.0000000000000000e+00  0.0000000000000000e+00 0.0000000000000000e+00 0.0000000000000000e+00  0.0000000000000000e+00 0.0000000000000000e+00 0.0000000000000000e+00  0.0000000000000000e+00 0.0000000000000000e+00 0.0000000000000000e+00  0.0000000000000000e+00 0.0000000000000000e+00 0.0000000000000000e+00  0.0000000000000000e+00 0.0000000000000000e+00 0.0000000000000000e+00  0.0000000000000000e+00 0.0000000000000000e+00 0.0000000000000000e+00  0.0000000000000000e+00 0.0000000000000000e+00 0.0000000000000000e+00  0.0000000000000000e+00 0.0000000000000000e+00 0.0000000000000000e+00  0.0000000000000000e+00 0.0000000000000000e+00 0.0000000000000000e+00  0.0000000000000000e+00 0.0000000000000000e+00 0.0000000000000000e+00  0.0000000000000000e+00 0.0000000000000000e+00 0.0000000000000000e+00  0.0000000000000000e+00 0.0000000000000000e+00 0.0000000000000000e+00  0.0000000000000000e+00 0.0000000000000000e+00 0.0000000000000000e+00  -4.8723431296029573e-02 -2.9026242072674530e-02 -2.4897336651304593e-02  -5.0383681137397586e-02 -3.0709697017549938e-02 -7.5537143825208264e-02  -4.8191184383326834e-02 -2.8904697427052629e-02 -1.3401354047586897e-01  -5.0166720908790131e-02 -3.1292235861073082e-02 -7.8315013735026154e-02  -5.1076558307157273e-02 2.8070888067804691e-02 -7.5572785993573172e-02  -4.9446204375727915e-02 2.6346570407612697e-02 -2.5066159723422264e-02  -5.1022273503400814e-02 2.8791330481883464e-02 -7.8360615907081474e-02  -4.8957659130093589e-02 2.6343152959819732e-02 -1.3392888077249740e-01  1.4325609279658062e-02 -1.0573941627818358e-02 -8.8098754196792417e-02  1.5651696247941070e-02 -6.9952167151904688e-03 -9.8810679634486795e-02  1.5400592321921884e-02 -8.3323899334318881e-03 -3.0920601022340496e-02  1.5155613406381002e-02 -7.6590161421025071e-03 -2.5871841991327416e-02  1.5153289007187574e-02 5.7176327340352530e-03 -9.8655683980390721e-02  1.3553212670786527e-02 9.2552658543896844e-03 -8.8130322594657404e-02  1.4425012138203496e-02 6.5554707614234563e-03 -2.5693598071046504e-02  1.4696273810226958e-02 7.2297083532041400e-03 -3.0704468278104632e-02  1.1237973386607173e-02 2.7365417435742969e-02 -1.9820611676103602e-02  1.0461689263910749e-02 -3.0075725347672104e-02 -1.9738409840386918e-02  -5.6121880906194042e-02 9.3567214848318833e-04 -2.4700241794291939e-02  -5.5318546425685101e-02 -2.0089822640929748e-03 -2.4855456743463882e-02  -5.8122936558273358e-02 9.8037784652090063e-04 -9.6437665230477337e-02  -5.7262640857938023e-02 -2.2902745457880317e-03 -9.6799672473097315e-02  -6.7287756897607831e-01 -1.6185907937359832e-03 -3.2043210063136270e-02  -6.7202701957369371e-01 2.1267604391815977e-04 -3.2231417584475022e-02  -6.7287441319142238e-01 -1.0023303314978169e-03 -1.0941504636095437e-01  -6.7202388683905112e-01 -5.9381051493170606e-04 -1.0960358526759072e-01  0.0000000000000000e+00 0.0000000000000000e+00 0.0000000000000000e+00  0.0000000000000000e+00 0.0000000000000000e+00 0.0000000000000000e+00  0.0000000000000000e+00 0.0000000000000000e+00 0.0000000000000000e+00  0.0000000000000000e+00 0.0000000000000000e+00 0.0000000000000000e+00  0.0000000000000000e+00 0.0000000000000000e+00 0.0000000000000000e+00  0.0000000000000000e+00 0.0000000000000000e+00 0.0000000000000000e+00  0.0000000000000000e+00 0.0000000000000000e+00 0.0000000000000000e+00  0.0000000000000000e+00 0.0000000000000000e+00 0.0000000000000000e+00  0.0000000000000000e+00 0.0000000000000000e+00 0.0000000000000000e+00  0.0000000000000000e+00 0.0000000000000000e+00 0.0000000000000000e+00  0.0000000000000000e+00 0.0000000000000000e+00 0.0000000000000000e+00  0.0000000000000000e+00 0.0000000000000000e+00 0.0000000000000000e+00  -2.9727291387364393e-03 -2.8594448725073524e-03 -6.3946498516860018e-03  -5.0621029098776747e-03 -4.8220419841998631e-03 -1.1826651714175671e-02  -7.7475773740137439e-03 -7.0426013427999437e-03 -1.7052969231271579e-02  -1.1163602015421464e-02 -1.0030349583138752e-02 -2.2175216982385771e-02  -1.5334857623890434e-02 -1.3575927692983559e-02 -2.7029214182138533e-02  -2.0107816000951399e-02 -1.7575300935098272e-02 -3.1426669079467763e-02  -2.5295600447573018e-02 -2.1999035003250150e-02 -3.5658051546841978e-02  -3.1054327514883816e-02 -2.6826450644584846e-02 -3.9459702955369554e-02  -3.6951137248118687e-02 -3.1831745708562786e-02 -4.2947464163688165e-02  -4.3263711054806399e-02 -3.7105121755965677e-02 -4.6059593622361623e-02  -4.9636189005316335e-02 -4.2477567687820315e-02 -4.8764644462619029e-02  -5.6136009225206382e-02 -4.7864433814009330e-02 -5.1146975156136656e-02  -6.2546026489445627e-02 -5.3151883074957905e-02 -5.3200649543398711e-02  -6.8863977985610531e-02 -5.8300118048046488e-02 -5.4845527364365133e-02  -7.4868731306777750e-02 -6.3242273739162552e-02 -5.6166167460646128e-02  -8.0564532044412954e-02 -6.7803538808980435e-02 -5.6931260142147881e-02  -8.5797073668562998e-02 -7.2017675601434808e-02 -5.7543627236894421e-02  -9.0505230428576777e-02 -7.5660677366639034e-02 -5.7572532397437391e-02  -9.4698890985742051e-02 -7.8791040519956737e-02 -5.7669886225008536e-02  -9.8152119721038295e-02 -8.1238931820309210e-02 -5.7089820192347381e-02  -1.0060573961681117e-01 -8.2987573105776286e-02 -5.6369914530255652e-02  -1.0250613439850377e-01 -8.4026657667541207e-02 -5.5314906195404238e-02  -1.0330590146370287e-01 -8.3999496302211277e-02 -5.3773977945271223e-02  -1.0264709289359220e-01 -8.2856910356129548e-02 -5.1833883023936704e-02  -1.0122198579348667e-01 -8.0899771220203628e-02 -4.9698117646660926e-02  -9.8337686868691460e-02 -7.7637515237343038e-02 -4.6663070965387590e-02  -9.4123930767628913e-02 -7.3107641377350804e-02 -4.3812058106914013e-02  -8.8341535056079265e-02 -6.7361749256770201e-02 -4.0166448197343774e-02  -8.0981523348561096e-02 -6.0099532210192437e-02 -3.6597221352895587e-02  -7.2027343324098797e-02 -5.1559997781740176e-02 -3.2703531453100121e-02  -6.1251111909339739e-02 -4.1082617238291305e-02 -2.8797420538682464e-02  -4.8658207349169161e-02 -2.9815084983952064e-02 -3.7257032927268140e-02  -4.9018764269836132e-02 -3.0373543701422104e-02 -4.9431166655775023e-02  -4.9761086586300803e-02 -3.0591600148913992e-02 -6.1944263319207910e-02  -6.3882194248241791e-02 -4.1985869078275152e-02 -7.2765533234126420e-02  -7.5018230002701344e-02 -5.1972110642963934e-02 -7.0823268331313763e-02  -8.3902301750152702e-02 -6.0524287036593703e-02 -6.8870829965156755e-02  -9.1174138022166021e-02 -6.7442277691360603e-02 -6.6979304199566506e-02  -9.6924623012670075e-02 -7.3368213352239878e-02 -6.5296442515949349e-02  -1.0110227472812286e-01 -7.7754457947713587e-02 -6.2713999789934222e-02  -1.0373453388680969e-01 -8.0734376244324169e-02 -6.0976459927875169e-02  -1.0495065020429817e-01 -8.2545611309957592e-02 -5.8391433149619525e-02  -1.0507948419640799e-01 -8.3259122897660340e-02 -5.6635158236181760e-02  -1.0409994549215720e-01 -8.2890103885571428e-02 -5.4415421712444526e-02  -1.0209408603405906e-01 -8.1887539157396549e-02 -5.2046762973680473e-02  -9.9463412805650006e-02 -8.0035378019469194e-02 -4.9431444511727894e-02  -9.5963897150611169e-02 -7.7345521602289177e-02 -4.7371333921202984e-02  -9.1783254482273202e-02 -7.4171901879058477e-02 -4.4956378437967466e-02  -8.6842236905915748e-02 -7.0189728775880617e-02 -4.2580601535323018e-02  -8.1432359636034887e-02 -6.5853257380972724e-02 -4.0299664417873526e-02  -7.5485131752385817e-02 -6.0970613219431251e-02 -3.7949208838100781e-02  -6.9242935743829684e-02 -5.5877139218460214e-02 -3.5455480697942736e-02  -6.2791839591600465e-02 -5.0488198286108316e-02 -3.3044035922004854e-02  -5.6209606745458142e-02 -4.4983747988574040e-02 -3.0614258861813532e-02  -4.9605350925667764e-02 -3.9395471894787648e-02 -2.8146265530028941e-02  -4.3033000838439507e-02 -3.3795729440462011e-02 -2.5628867872840872e-02  -3.6585329359704016e-02 -2.8357061299216019e-02 -2.3198207334895350e-02  -3.0376373920714843e-02 -2.3120860889857597e-02 -2.0654821315075424e-02  -2.4572747759484363e-02 -1.8136324807539184e-02 -1.7980995396221507e-02  -1.9192405472376529e-02 -1.3493392109486467e-02 -1.5346511320820438e-02  -1.4260518539957228e-02 -9.3322832875153347e-03 -1.2713583063778327e-02  -1.0069204604168510e-02 -5.6546581398153276e-03 -1.0141874725662694e-02  -6.5522451540392284e-03 -2.6367030766824900e-03 -7.8728680496065444e-03  -3.6834715248760053e-03 -3.8128705519518014e-04 -5.2624157571334205e-03  -1.6500599876816610e-03 8.3143663677227376e-04 -2.9067402007132963e-03  -4.9554842172204051e-02 -3.0281667939109681e-02 -8.9871999073500214e-02  -4.9099208891437061e-02 -2.9752714624229560e-02 -1.0331639111835952e-01  -4.8666173324528592e-02 -2.9025236660355468e-02 -1.1698429073827214e-01  -4.8509387214054851e-02 -2.9241181567938108e-02 -1.1801041166000646e-01  -4.9151837595550286e-02 -2.9654731018789543e-02 -1.0416223396816074e-01  -5.0095001225659165e-02 -3.0175335424679879e-02 -9.2066270307911507e-02  -5.0065474840960765e-02 -3.0643244352503238e-02 -6.3861788668896677e-02  -4.9875429962048676e-02 -2.9738341736461470e-02 -5.0593280914106240e-02  -4.9454408585526799e-02 -2.9168488510933992e-02 -3.8027756912436546e-02  -6.2001331924556466e-02 -4.4354789953050408e-02 -7.5302596819287179e-02  -7.2620141379613229e-02 -5.4929434248406683e-02 -7.2786267378744135e-02  -8.1352896160111238e-02 -6.3721041568013295e-02 -6.9747434883890444e-02  -8.8343708348373989e-02 -7.0725515069419084e-02 -6.7589107954521208e-02  -9.3913784350137003e-02 -7.6439016875805482e-02 -6.4902444178023433e-02  -9.8209604787414667e-02 -8.0765817235702378e-02 -6.2137608115669055e-02  -1.0091899966070493e-01 -8.3779784701581622e-02 -5.9038673153658183e-02  -1.0215051567714654e-01 -8.5599643845178250e-02 -5.6669859746226382e-02  -1.0227921758914173e-01 -8.6430677801323130e-02 -5.3735472435826812e-02  -1.0126109076206981e-01 -8.6125725158248720e-02 -5.1512180143635476e-02  -9.9357160100272027e-02 -8.4954653551334733e-02 -4.8576942467228296e-02  -9.6575618352607973e-02 -8.3116070123879934e-02 -4.6323504557899818e-02  -9.3097126548752532e-02 -8.0393821269172272e-02 -4.3768360016573894e-02  -8.8941993478961881e-02 -7.7215909771176261e-02 -4.1113194255275640e-02  -8.3935332258991344e-02 -7.3281355689666788e-02 -3.8577126224262945e-02  -7.8532427185972087e-02 -6.8904174461835888e-02 -3.6191776634900995e-02  -7.2552814664497575e-02 -6.4006225217105708e-02 -3.3783615009950724e-02  -6.6386821183544192e-02 -5.8859431710140055e-02 -3.1333036246014252e-02  -5.9962996491225308e-02 -5.3493270697764196e-02 -2.8840384799037964e-02  -5.3340731870984329e-02 -4.7971554351475577e-02 -2.6464045713373720e-02  -4.6697522978332885e-02 -4.2376591018233982e-02 -2.4118523162234617e-02  -4.0084620856535233e-02 -3.6832659214702516e-02 -2.1743228757391007e-02  -3.3679521470042939e-02 -3.1333697164331618e-02 -1.9474181861591076e-02  -2.7377850925609990e-02 -2.6066230626920518e-02 -1.7098629286641274e-02  -2.1557762829076572e-02 -2.1069895540737821e-02 -1.4968938740984882e-02  -1.6247192030993111e-02 -1.6381119873954401e-02 -1.2715791547600296e-02  -1.1295870997652302e-02 -1.2206303030502625e-02 -1.0291694105243427e-02  -7.0524238347229821e-03 -8.6236731973889872e-03 -8.2650750165582029e-03  -3.4340929362302081e-03 -5.4319907022212588e-03 -6.0313595484796090e-03  -7.2705532501765981e-04 -3.0202159317746038e-03 -3.9988581972969298e-03  5.1691473815773810e-04 -1.3905053254595718e-03 -2.2665746546059562e-03  -6.6582945632598432e-04 -6.5299837980486314e-04 1.4669245653959827e-03  -2.2783486124158315e-03 -1.9145709459550580e-03 2.6236745657329148e-03  -4.8258854987174834e-03 -4.0916581083330584e-03 3.3754576502748419e-03  -8.2995872354264706e-03 -6.9905777900251091e-03 3.6637523405806554e-03  -1.2430519011903460e-02 -1.0546002924938474e-02 3.7355570571427758e-03  -1.7119966895326317e-02 -1.4620999792052567e-02 3.3630235298175576e-03  -2.2361164545556349e-02 -1.9015335273997826e-02 2.7583415804780533e-03  -2.8066001820436594e-02 -2.3898787735122873e-02 1.7333042301888129e-03  -3.3993699888756980e-02 -2.8903237826048981e-02 3.6539274625606619e-04  -4.0272997631582458e-02 -3.4197961849682351e-02 -1.3615000463080161e-03  -4.6662386532910653e-02 -3.9559169194784763e-02 -3.5046397945721736e-03  -5.3163890704581371e-02 -4.4946661275109163e-02 -5.9735003977734848e-03  -5.9530033599194829e-02 -5.0265103269975839e-02 -8.7427140677934969e-03  -6.5839168859489122e-02 -5.5413783247142939e-02 -1.1936289630635009e-02  -7.1868535746379719e-02 -6.0355196213528091e-02 -1.5433049483473127e-02  -7.7515618377866913e-02 -6.4963756848031948e-02 -1.9513000904456533e-02  -8.2795652065230332e-02 -6.9135471359456024e-02 -2.3749401497525750e-02  -8.7486483585064556e-02 -7.2813650418619022e-02 -2.8573657486666518e-02  -9.1563093646494412e-02 -7.5990417875616556e-02 -3.3399679386148962e-02  -9.4970369005138028e-02 -7.8427660823140302e-02 -3.8904143361889076e-02  -9.7675324847114733e-02 -8.0175865027481336e-02 -4.4304283137548292e-02  -9.9452362176829012e-02 -8.1076088431295990e-02 -5.0465676565634013e-02  -9.9984779506235369e-02 -8.1072631468116205e-02 -5.6767410630910634e-02  -9.9790783241966080e-02 -8.0312669462107855e-02 -6.3484002474799961e-02  -9.8265031225914304e-02 -7.8195880289545147e-02 -7.0446133805938074e-02  -9.5256077528743099e-02 -7.4757931518876539e-02 -7.8023940444374149e-02  -9.0950426198806236e-02 -7.0208231175427210e-02 -8.5931408468514367e-02  -8.5429311398633176e-02 -6.4625872844880278e-02 -9.4212674904339114e-02  -7.7915233760025210e-02 -5.7366305210552956e-02 -1.0292203060668767e-01  -6.9278958821320458e-02 -4.8826921548148883e-02 -1.1152481514795637e-01  -5.8962289581146334e-02 -3.9071137152494093e-02 -1.2126005903466146e-01  0.0000000000000000e+00 0.0000000000000000e+00 0.0000000000000000e+00  0.0000000000000000e+00 0.0000000000000000e+00 0.0000000000000000e+00  0.0000000000000000e+00 0.0000000000000000e+00 0.0000000000000000e+00  0.0000000000000000e+00 0.0000000000000000e+00 0.0000000000000000e+00  0.0000000000000000e+00 0.0000000000000000e+00 0.0000000000000000e+00  0.0000000000000000e+00 0.0000000000000000e+00 0.0000000000000000e+00  0.0000000000000000e+00 0.0000000000000000e+00 0.0000000000000000e+00  0.0000000000000000e+00 0.0000000000000000e+00 0.0000000000000000e+00  0.0000000000000000e+00 0.0000000000000000e+00 0.0000000000000000e+00  0.0000000000000000e+00 0.0000000000000000e+00 0.0000000000000000e+00  0.0000000000000000e+00 0.0000000000000000e+00 0.0000000000000000e+00  0.0000000000000000e+00 0.0000000000000000e+00 0.0000000000000000e+00  1.5324531288164033e-02 -8.4645001271244479e-03 -4.0930740773029939e-02  1.5210473661364030e-02 -9.3904952650060193e-03 -5.5907109840037848e-02  1.4866151947390134e-02 -1.0202660133307853e-02 -7.1057744642752371e-02  1.4295800353165307e-02 -9.3353193643733613e-03 -9.0678145137921662e-02  1.4416955481544988e-02 -8.6187189196304560e-03 -9.2427587188844237e-02  1.4834107485949913e-02 -7.7991383590714190e-03 -9.4509914733305056e-02  1.5964194536925009e-02 -7.2549029533112213e-03 -8.0187847040945226e-02  1.5931514938779871e-02 -7.6192125007772168e-03 -6.3441280603159816e-02  1.5919893974575321e-02 -7.7904665077760255e-03 -4.7390859464304637e-02  1.4862913868256066e-02 -8.3739562112060458e-03 -3.0196425807206596e-02  1.4477130718261925e-02 -8.2897215286074667e-03 -2.8843188430048086e-02  1.4554345301043400e-02 -8.1007017738371160e-03 -2.7404655760608604e-02  2.9886187673223569e-02 -9.3461933579789790e-03 -2.7608749051127861e-02  4.2665638599197628e-02 -1.0805491529574354e-02 -2.9423453324150611e-02  5.3832349422322893e-02 -1.2036515282899845e-02 -3.1403128618980751e-02  6.3115294564122723e-02 -1.3018896912348704e-02 -3.3682869850881259e-02  7.0621252622997802e-02 -1.3787504172443140e-02 -3.4993866211971800e-02  7.6548470882020506e-02 -1.4439595178883395e-02 -3.6493034180307207e-02  8.1194723160506535e-02 -1.5045620540814890e-02 -3.7664861611908469e-02  8.4287619842205341e-02 -1.5154634406755626e-02 -3.9058693279433947e-02  8.6318228908419128e-02 -1.5098427573969588e-02 -3.9821138634784765e-02  8.7096288095618535e-02 -1.5017807472921137e-02 -4.0375921931214961e-02  8.6843224655378942e-02 -1.4822171500036181e-02 -4.0883885354586702e-02  8.5465482158401579e-02 -1.4565934404640679e-02 -4.1004917433499335e-02  8.3316794458725765e-02 -1.4160863507018187e-02 -4.1101478759982671e-02  8.0322096252667646e-02 -1.3554635990355234e-02 -4.0869985065211153e-02  7.6609342761214838e-02 -1.3031592528760592e-02 -4.0473485974208641e-02  7.2406132412822552e-02 -1.2319328520394527e-02 -3.9744337388518652e-02  6.7648264829798854e-02 -1.1484570631152281e-02 -3.8901897534785068e-02  6.2476201700971290e-02 -1.0704280589245564e-02 -3.7760084943723973e-02  5.7049623847947643e-02 -9.8563891140747758e-03 -3.6479923052414584e-02  5.1325428339827915e-02 -8.9942776894312380e-03 -3.4922747653136639e-02  4.5543263747886219e-02 -8.1339107874713861e-03 -3.3182746369930620e-02  3.9677313939306881e-02 -7.2689630395618666e-03 -3.1212651404235885e-02  3.3955605180993359e-02 -6.4349483527863516e-03 -2.8994153100512791e-02  2.8335093712150216e-02 -5.6802894049378131e-03 -2.6585245466361047e-02  2.3058963387439291e-02 -4.9512874862406029e-03 -2.3891395148558238e-02  1.8113941438551533e-02 -4.2381764371638830e-03 -2.1109704667551316e-02  1.3639620334088970e-02 -3.6238978951324326e-03 -1.8059261934226720e-02  9.7196848860113452e-03 -3.1049386131662238e-03 -1.4739678344436581e-02  6.5680450013306420e-03 -2.7417689695737055e-03 -1.1112464176032323e-02  3.9405846182699713e-03 -2.3248981558543196e-03 -7.6693328615968824e-03  2.0100490516104189e-03 -1.7541496047153303e-03 -4.1136416956959578e-03  1.0406470018337826e-04 -2.9394524809541454e-04 -3.5661594386926905e-04  1.4777989831884664e-03 -6.5979993287354369e-04 -6.5967819338426999e-04  3.9551366860923979e-03 -1.0699344656153059e-03 -1.1654055746654929e-03  7.1839855644881163e-03 -1.6777876700670375e-03 -1.6502023769955120e-03  1.1164117876672050e-02 -2.4059956708005112e-03 -2.5741072812747374e-03  1.5660845071438716e-02 -3.1640623569936521e-03 -3.5360466613783390e-03  2.0639255801585588e-02 -4.0388086700993203e-03 -4.8028267618701109e-03  2.5962871182704687e-02 -4.9484994915223639e-03 -6.1295439302298830e-03  3.1576058515253254e-02 -5.9503509287092970e-03 -7.7013632516938300e-03  3.7345938533774589e-02 -6.9498295676142909e-03 -9.3927194820065622e-03  4.3176879738009169e-02 -8.0113344929801291e-03 -1.1275237366869299e-02  4.9040675040987573e-02 -9.0594413620958339e-03 -1.3294892044903949e-02  5.4765962829939646e-02 -1.0104112169155964e-02 -1.5478065712190622e-02  6.0247616153026290e-02 -1.1150224259383135e-02 -1.7933586603318438e-02  6.5389478118153890e-02 -1.2221309271304714e-02 -2.0481113513223115e-02  7.0226645454673983e-02 -1.3168763518776577e-02 -2.3069452270101518e-02  7.4492356726998318e-02 -1.4026882746905424e-02 -2.6030116586774472e-02  7.8187312925341354e-02 -1.4903719743375211e-02 -2.9064685593312021e-02  8.1274910615572793e-02 -1.5724549721214658e-02 -3.2150422467557713e-02  8.3450627752875553e-02 -1.6321889109437437e-02 -3.5635028972194033e-02  8.4661119285528733e-02 -1.6895365682969996e-02 -3.9250877934770695e-02  8.5026304639733916e-02 -1.7330393766536532e-02 -4.2856315009913548e-02  8.4338666572702267e-02 -1.7569323345408203e-02 -4.6409534269706246e-02  8.2587285478651670e-02 -1.7699001411899069e-02 -5.0548327669509306e-02  7.9371947644784224e-02 -1.7621383754872228e-02 -5.4955504204571640e-02  7.4636587901996426e-02 -1.7410220008781088e-02 -5.9367287037953041e-02  6.8697155102487362e-02 -1.6938029912788411e-02 -6.3816995377856733e-02  6.1244201070211148e-02 -1.6509222828334415e-02 -6.8453117149925066e-02  5.1968582510441917e-02 -1.5732280348620828e-02 -7.3189226394560020e-02  4.1214876320777610e-02 -1.4644605104790926e-02 -7.7878362010908420e-02  2.8647754020403062e-02 -1.2944307193510468e-02 -8