<?xml version="1.0"?>
<VTKFile type="UnstructuredGrid"  version="0.1"  >
<UnstructuredGrid>
<Piece  NumberOfPoints="22830" NumberOfCells="45418">
<Points>
<DataArray  type="Float64"  NumberOfComponents="3"  format="ascii">0 0 0  0 1 0  1 1 0  1 0 0  0.5 0.8200000000000001 0  0.5700000000000001 0.75 0  0.5 0.6799999999999999 0  0.43 0.75 0  0.25 0.4033333333333333 0  0.32 0.3333333333333333 0  0.25 0.2633333333333333 0  0.18 0.3333333333333333 0  0.75 0.4033333333333333 0  0.8200000000000001 0.3333333333333333 0  0.75 0.2633333333333333 0  0.6799999999999999 0.3333333333333333 0  0.5 0.2366666666666667 0  0.5700000000000001 0.1666666666666667 0  0.5 0.09666666666666665 0  0.43 0.1666666666666667 0  0.75 0.2366666666666667 0  0.8200000000000001 0.1666666666666667 0  0.75 0.09666666666666665 0  0.6799999999999999 0.1666666666666667 0  0 0.5 0  1 0.5 0  0.01666666666663528 1 0  0.0333333333332695 1 0  0.04999999999989966 1 0  0.06666666666653284 1 0  0.08333333333317343 1 0  0.09999999999981467 1 0  0.1166666666664559 1 0  0.1333333333330856 1 0  0.1499999999997036 1 0  0.1666666666663217 1 0  0.1833333333329398 1 0  0.1999999999995579 1 0  0.216666666666176 1 0  0.2333333333327941 1 0  0.2499999999994122 1 0  0.2666666666660302 1 0  0.2833333333326484 1 0  0.2999999999992664 1 0  0.3166666666658845 1 0  0.3333333333325026 1 0  0.3499999999991207 1 0  0.3666666666657388 1 0  0.3833333333323569 1 0  0.399999999998975 1 0  0.416666666665593 1 0  0.4333333333322111 1 0  0.4499999999988292 1 0  0.4666666666654473 1 0  0.4833333333320654 1 0  0.4999999999986943 1 0  0.5166666666653941 1 0  0.5333333333321045 1 0  0.5499999999988152 1 0  0.5666666666655257 1 0  0.5833333333322362 1 0  0.5999999999989467 1 0  0.6166666666656574 1 0  0.6333333333323679 1 0  0.6499999999990784 1 0  0.6666666666657889 1 0  0.6833333333324995 1 0  0.6999999999992101 1 0  0.7166666666659206 1 0  0.7333333333326312 1 0  0.7499999999993416 1 0  0.7666666666660523 1 0  0.7833333333327628 1 0  0.7999999999994734 1 0  0.8166666666661839 1 0  0.8333333333328945 1 0  0.8499999999996051 1 0  0.8666666666663155 1 0  0.8833333333330261 1 0  0.8999999999997367 1 0  0.9166666666664472 1 0  0.9333333333331578 1 0  0.9499999999998683 1 0  0.966666666666579 1 0  0.9833333333332894 1 0  0.9833333333332639 0 0  0.9666666666665279 0 0  0.9499999999997918 0 0  0.9333333333330557 0 0  0.9166666666663196 0 0  0.8999999999995836 0 0  0.8833333333328475 0 0  0.866666666666204 0 0  0.8499999999996529 0 0  0.8333333333331019 0 0  0.8166666666665509 0 0  0.7999999999999998 0 0  0.7833333333334488 0 0  0.7666666666668978 0 0  0.7500000000003467 0 0  0.7333333333337957 0 0  0.7166666666672447 0 0  0.7000000000006936 0 0  0.6833333333341425 0 0  0.6666666666675913 0 0  0.6500000000010403 0 0  0.6333333333344893 0 0  0.6166666666679381 0 0  0.6000000000013871 0 0  0.5833333333348359 0 0  0.5666666666682849 0 0  0.5500000000017338 0 0  0.5333333333351827 0 0  0.5166666666686317 0 0  0.5000000000020588 0 0  0.4833333333353446 0 0  0.4666666666686085 0 0  0.4500000000018723 0 0  0.4333333333351365 0 0  0.4166666666684004 0 0  0.4000000000016645 0 0  0.3833333333349284 0 0  0.3666666666681924 0 0  0.3500000000014564 0 0  0.3333333333347203 0 0  0.3166666666679844 0 0  0.3000000000012483 0 0  0.2833333333345123 0 0  0.2666666666677763 0 0  0.2500000000010403 0 0  0.2333333333343043 0 0  0.2166666666675682 0 0  0.2000000000008323 0 0  0.1833333333340962 0 0  0.1666666666673602 0 0  0.1500000000006242 0 0  0.1333333333338882 0 0  0.1166666666671522 0 0  0.1000000000004161 0 0  0.08333333333368009 0 0  0.0666666666669441 0 0  0.0500000000002081 0 0  0.0333333333334721 0 0  0.01666666666673611 0 0  0.503434737220716 0.8199156819334878 0  0.5068611998595633 0.8196629308634595 0  0.5102711332641013 0.8192423556897878 0  0.5136563226123231 0.8186549696140648 0  0.5170086126651093 0.817902187705613 0  0.5203199274907073 0.8169858234761088 0  0.5235822898298198 0.815908084529763 0  0.5267878403339755 0.8146715672474499 0  0.5299288566135789 0.8132792504838975 0  0.5329977716661964 0.8117344884571467 0  0.5359871921982341 0.8100410026372592 0  0.538889916418817 0.808202872789386 0  0.5416989514258947 0.8062245271210072 0  0.5444075300055082 0.8041107316417908 0  0.5470091269341435 0.8018665786888781 0  0.5494974747704375 0.7994974745956792 0  0.5518665788291884 0.797009126779335 0  0.554110731774336 0.7944075298440014 0  0.5562245272428951 0.7916989512615481 0  0.55820287290397 0.7888899162473298 0  0.5600410027415577 0.7859871920242226 0  0.5617344885435951 0.7829977715044628 0  0.563279250557348 0.7799288564582809 0  0.5646715673105521 0.7767878401816335 0  0.5659080845817472 0.7735822896845336 0  0.5669858235073414 0.7703199273877472 0  0.5679021877266777 0.7670086125810144 0  0.5686549696289913 0.7636563225372828 0  0.5692423556997797 0.7602711331967417 0  0.569662930866928 0.7568611998243474 0  0.5699156819343038 0.7534347372041068 0  0.5699156819334878 0.746565262779284 0  0.5696629308634595 0.7431388001404367 0  0.5692423556897878 0.7397288667358987 0  0.5686549696140648 0.7363436773876769 0  0.567902187705613 0.7329913873348907 0  0.5669858234761088 0.7296800725092927 0  0.565908084529763 0.7264177101701802 0  0.5646715672474499 0.7232121596660245 0  0.5632792504838975 0.7200711433864211 0  0.5617344884571467 0.7170022283338036 0  0.5600410026372592 0.7140128078017659 0  0.558202872789386 0.711110083581183 0  0.5562245271210072 0.7083010485741053 0  0.5541107316417908 0.7055924699944918 0  0.5518665786888781 0.7029908730658565 0  0.5494974745956792 0.7005025252295625 0  0.547009126779335 0.6981334211708116 0  0.5444075298440014 0.695889268225664 0  0.5416989512615481 0.6937754727571049 0  0.5388899162473298 0.69179712709603 0  0.5359871920242226 0.6899589972584423 0  0.5329977715044628 0.6882655114564049 0  0.5299288564582809 0.686720749442652 0  0.5267878401816335 0.6853284326894479 0  0.5235822896845336 0.6840919154182528 0  0.5203199273877472 0.6830141764926586 0  0.5170086125810144 0.6820978122733223 0  0.5136563225372828 0.6813450303710087 0  0.5102711331967417 0.6807576443002203 0  0.5068611998243474 0.680337069133072 0  0.5034347372041068 0.6800843180656962 0  0.4965652628097145 0.6800843180650172 0  0.4931388001784305 0.6803370691327985 0  0.4897288667876392 0.6807576443025373 0  0.4863436774397379 0.6813450303755796 0  0.4829913873832231 0.6820978122822804 0  0.4796800725510582 0.6830141765112218 0  0.4764177101873812 0.6840919154640823 0  0.4732121596470783 0.6853284327603978 0  0.4700711433852955 0.6867207495166349 0  0.4670022283555016 0.6882655115312555 0  0.4640128078340717 0.6899589973433774 0  0.4611100836064061 0.6917971271937606 0  0.4583010485835747 0.6937754728719697 0  0.4555924700012281 0.6958892683526808 0  0.4529908730692256 0.6981334213080682 0  0.4505025252154627 0.7005025254184205 0  0.448133421155551 0.7029908732375024 0  0.4458892682087296 0.7055924701766332 0  0.443775472746992 0.7083010487520877 0  0.441797127091777 0.7111100837590353 0  0.43995899725829 0.7140128079760316 0  0.4382655114600438 0.7170022284887293 0  0.4367207494556355 0.7200711435142678 0  0.4353284327001016 0.7232121597926461 0  0.4340919154208099 0.7264177103083195 0  0.4330141764939466 0.7296800726080069 0  0.4320978122733474 0.7329913874188856 0  0.4313450303706642 0.7363436774644494 0  0.4307576443016923 0.7397288667933356 0  0.4303370691331301 0.7431388001750635 0  0.4300843180655605 0.7465652627986563 0  0.4300843180664252 0.7534347372189456 0  0.4303370691373974 0.7568611998682635 0  0.4307576443118339 0.760271133275033 0  0.4313450303877117 0.763656322621254 0  0.4320978123025589 0.7670086126977332 0  0.4330141765376306 0.7703199275359999 0  0.4340919154852817 0.7735822898718668 0  0.4353284327872454 0.7767878404177373 0  0.4367207495407965 0.7799288566657899 0  0.4382655115580333 0.7829977716945961 0  0.4399589973538009 0.7859871921833186 0  0.4417971272126556 0.7888899164218722 0  0.443775472889023 0.7916989514394188 0  0.4458892683644782 0.7944075300131469 0  0.4481334213453106 0.797009126971865 0  0.4505025254616346 0.7994974748277512 0  0.4529908733040127 0.8018665789047302 0  0.4555924702326954 0.8041107318372793 0  0.4583010487886999 0.8062245272801615 0  0.4611100837836489 0.8082028729246693 0  0.4640128079926881 0.8100410027516936 0  0.4670022285037349 0.8117344885479768 0  0.470071143540272 0.8132792505566635 0  0.4732121597993258 0.8146715673026651 0  0.4764177103305587 0.8159080845871473 0  0.4796800726684965 0.8169858235244026 0  0.4829913874874044 0.8179021877438155 0  0.4863436775294918 0.8186549696422735 0  0.489728866847653 0.8192423557063648 0  0.4931388002279537 0.8196629308720791 0  0.4965652628349143 0.8199156819362208 0  0.2534347372043028 0.4032490152676274 0  0.2568611998363233 0.4029962641990817 0  0.2602711332344667 0.4025756890275169 0  0.263656322558654 0.4019883029580735 0  0.2670086126171147 0.4012355210509682 0  0.2703199274500058 0.4003191568217887 0  0.2735822898006733 0.3992414178735251 0  0.2767878403294471 0.3980049005826589 0  0.2799288566053465 0.3966125838211244 0  0.2829977716685309 0.3950678217892321 0  0.2859871921918011 0.3933743359744483 0  0.2888899164209794 0.3915362061212742 0  0.291698951417925 0.3895578604602512 0  0.2944075300083284 0.3874440649728095 0  0.2970091269527018 0.3851999120053912 0  0.2994974747949249 0.382830807904525 0  0.3018665788771739 0.3803424600597244 0  0.304110731824122 0.3777408631166702 0  0.3062245272854238 0.3750322845375378 0  0.3082028729282311 0.3722232495443537 0  0.3100410027576952 0.3693205253306319 0  0.3117344885631115 0.3663311048012834 0  0.3132792505732136 0.363262189758069 0  0.3146715673142564 0.3601211735060238 0  0.3159080845921929 0.3569156229886731 0  0.3169858235319789 0.3536532606398613 0  0.3179021877490046 0.3503419458252133 0  0.3186549696464285 0.3469896557829526 0  0.3192423557101767 0.3436044664599828 0  0.319662930874574 0.3401945330800481 0  0.3199156819361392 0.33676807
[...]
<PointData  Scalars="f_20"> 
<DataArray  type="Float64"  Name="f_20"  format="ascii">1.0000000000000000e+00  1.0000000000000000e+00  5.1228836756624876e+00  5.1043511826680747e+00  9.0994775252833904e+00  9.0995685799560633e+00  9.0995020503197708e+00  9.0991961737098475e+00  6.9540664477844430e+01  6.9540803808163105e+01  6.9540767308789938e+01  6.9540675002286875e+01  8.9997562587638186e+01  8.9999476565016138e+01  9.0007863334812555e+01  8.9999566974307385e+01  7.1263325808215200e+01  7.1263940976931238e+01  7.1263247114723200e+01  7.1263152389556993e+01  9.0836895298686684e+01  9.0828582549902720e+01  9.0826874462801086e+01  9.0829245222058816e+01  1.0000000000000000e+00  5.2079364359738660e+00  1.2879764823988908e+00  1.5737995439270018e+00  1.8555119324794955e+00  2.1313072171499003e+00  2.3996993395672943e+00  2.6593235129117945e+00  2.9093618109000965e+00  3.1493596493440426e+00  3.3789378375108261e+00  3.5980818233895100e+00  3.8071068300736144e+00  4.0064900729593313e+00  4.1967809365100139e+00  4.3785927750173874e+00  4.5525958531891133e+00  4.7194953131923194e+00  4.8795327288399157e+00  5.0337017769249117e+00  5.1816130823983704e+00  5.3233384251162619e+00  5.4586784613144141e+00  5.5868469544940869e+00  5.7067318331517933e+00  5.8168912768587946e+00  5.9164172557583257e+00  6.0039595907380718e+00  6.0773447894926456e+00  6.1353696159700322e+00  6.1772320005266907e+00  6.2024250071157860e+00  6.2110099766178779e+00  6.2032655350110186e+00  6.1820845666295430e+00  6.1476254548275717e+00  6.1009547035604603e+00  6.0466315170447222e+00  5.9855568962597214e+00  5.9199798008822881e+00  5.8523522071556728e+00  5.7843813622036615e+00  5.7169439274322329e+00  5.6515457546745500e+00  5.5890924064260989e+00  5.5303262910206579e+00  5.4756012793799371e+00  5.4251317501615475e+00  5.3790575163856147e+00  5.3373838412381165e+00  5.3000069073967326e+00  5.2667893890213033e+00  5.2375575241121171e+00  5.2121860905008486e+00  5.1902825381199005e+00  5.1718012328390515e+00  5.1565123366896799e+00  5.1442427808454685e+00  5.1348596334606391e+00  5.1282427430516728e+00  5.1242747856084225e+00  5.1178760005497361e+00  5.1576062191410195e+00  5.2308668699305025e+00  5.3496148320883012e+00  5.5303599345756078e+00  5.7906941508405874e+00  6.1527919599964234e+00  6.6331044014774827e+00  7.2415303011691963e+00  7.9788672126161506e+00  8.7471737788282464e+00  9.5719133621739942e+00  1.0238336157418836e+01  1.0717884950790207e+01  1.0913738644015337e+01  1.0764949992288885e+01  1.0343577195636286e+01  9.6636512901402618e+00  9.0400226688610132e+00  8.4025344709596741e+00  7.9098172477930273e+00  7.5613533729346711e+00  7.4972549000433828e+00  7.6051048057302424e+00  7.9690259501579810e+00  8.4273036532898491e+00  8.9384579851337360e+00  9.4150894960680773e+00  9.7474880332826430e+00  9.8687740373992980e+00  9.7213939204562045e+00  9.3164723979286208e+00  8.7596498193023447e+00  8.1071001623994867e+00  7.4527718573072352e+00  6.8606886484475735e+00  6.3693115701596854e+00  5.9711400821967677e+00  5.6701819152046262e+00  5.4526948683787193e+00  5.3006016151021882e+00  5.1972244103957665e+00  5.1284952790296821e+00  5.0828215748704801e+00  5.0518789615579394e+00  5.0290657181170850e+00  5.0095478393922184e+00  4.9886477757991532e+00  4.9613316641978464e+00  4.9223976877094406e+00  4.8644074080925774e+00  4.7763700796379771e+00  4.6429656133999622e+00  4.4455039285323830e+00  4.1634348323034134e+00  3.7727892899315902e+00  3.2561630700198649e+00  2.6044829646046237e+00  1.8372714314809251e+00  9.0994861414458956e+00  9.0994940764715402e+00  9.0995015525312084e+00  9.0995084498060308e+00  9.0995145085112323e+00  9.0995202373326691e+00  9.0995257265019607e+00  9.0995305567890163e+00  9.0995347016842913e+00  9.0995384043535310e+00  9.0995416860024729e+00  9.0995447088672936e+00  9.0995472898596503e+00  9.0995494734296773e+00  9.0995514385422958e+00  9.0995532744090646e+00  9.0995548244318272e+00  9.0995561082922638e+00  9.0995572874676576e+00  9.0995582860055642e+00  9.0995591133255065e+00  9.0995600959961589e+00  9.0995607154921991e+00  9.0995616632218042e+00  9.0995623678088524e+00  9.0995630577347324e+00  9.0995642809000152e+00  9.0995648057551115e+00  9.0995657112008335e+00  9.0995666275210461e+00  9.0995675935496134e+00  9.0995695361645659e+00  9.0995706031274466e+00  9.0995712223588026e+00  9.0995725420529148e+00  9.0995737100276131e+00  9.0995746166974829e+00  9.0995753818174663e+00  9.0995762382783205e+00  9.0995770281038979e+00  9.0995776082159594e+00  9.0995779529625622e+00  9.0995781987554043e+00  9.0995781236689126e+00  9.0995776077260295e+00  9.0995770675922945e+00  9.0995764300142437e+00  9.0995751210233866e+00  9.0995733517136852e+00  9.0995713363453881e+00  9.0995691030047414e+00  9.0995662421851318e+00  9.0995629179623556e+00  9.0995590493215808e+00  9.0995550163866756e+00  9.0995502089221283e+00  9.0995446134040066e+00  9.0995391169188213e+00  9.0995329233276614e+00  9.0995260365164423e+00  9.0995184976771082e+00  9.0995105290047871e+00  9.0994935180089076e+00  9.0994843088790915e+00  9.0994747651894219e+00  9.0994643988212012e+00  9.0994536490003100e+00  9.0994427383897385e+00  9.0994315941717048e+00  9.0994199608555242e+00  9.0994080181656560e+00  9.0993958732012690e+00  9.0993836636042502e+00  9.0993712662922288e+00  9.0993588153122129e+00  9.0993462968656349e+00  9.0993340162343994e+00  9.0993220171365916e+00  9.0993099253689103e+00  9.0992981625520066e+00  9.0992866923429307e+00  9.0992758213922507e+00  9.0992650038193048e+00  9.0992549637120437e+00  9.0992454751752092e+00  9.0992368124981091e+00  9.0992286199185060e+00  9.0992214824511510e+00  9.0992155359032694e+00  9.0992096796188537e+00  9.0992046940690336e+00  9.0992011537862698e+00  9.0991983721868124e+00  9.0991956686511877e+00  9.0991962006745091e+00  9.0991976841959588e+00  9.0991997807744553e+00  9.0992031485829568e+00  9.0992074563641978e+00  9.0992122970297444e+00  9.0992183961203015e+00  9.0992253891172261e+00  9.0992331123869974e+00  9.0992418137961906e+00  9.0992511841560351e+00  9.0992610970669769e+00  9.0992714488058493e+00  9.0992823277939401e+00  9.0992937895785690e+00  9.0993055822370721e+00  9.0993174500678933e+00  9.0993298840436871e+00  9.0993425983105762e+00  9.0993549526570980e+00  9.0993673175539094e+00  9.0993795709667413e+00  9.0993918522271873e+00  9.0994037918458961e+00  9.0994156536597757e+00  9.0994271649883434e+00  9.0994382875911519e+00  9.0994487067993965e+00  9.0994587550346981e+00  9.0994683531833651e+00  6.9540666543468163e+01  6.9540669340615864e+01  6.9540674777232340e+01  6.9540677836651128e+01  6.9540679499438212e+01  6.9540682034311814e+01  6.9540686805013024e+01  6.9540690460781207e+01  6.9540697327508525e+01  6.9540701463285686e+01  6.9540703974386844e+01  6.9540701531034273e+01  6.9540710250138673e+01  6.9540713410705067e+01  6.9540718236137209e+01  6.9540722648921786e+01  6.9540727088456194e+01  6.9540733668421296e+01  6.9540739106989193e+01  6.9540742990582075e+01  6.9540746731329321e+01  6.9540749306694991e+01  6.9540755060518876e+01  6.9540760802904828e+01  6.9540764843911802e+01  6.9540769738784263e+01  6.9540777075636043e+01  6.9540784142149676e+01  6.9540787694674151e+01  6.9540789998308853e+01  6.9540794344516655e+01  6.9540810919695801e+01  6.9540817483665577e+01  6.9540819105411686e+01  6.9540821014449776e+01  6.9540826710073958e+01  6.9540830754326535e+01  6.9540834308232192e+01  6.9540839354852281e+01  6.9540841051043017e+01  6.9540841513226852e+01  6.9540841074483495e+01  6.9540841854174943e+01  6.9540842948932053e+01  6.9540842221385688e+01  6.9540840902631530e+01  6.9540837529833212e+01  6.9540835453473974e+01  6.9540833254710407e+01  6.9540828129651786e+01  6.9540825436042923e+01  6.9540820626090309e+01  6.9540816540588793e+01  6.9540810536322127e+01  6.9540804533590972e+01  6.9540801029143410e+01  6.9540797921174459e+01  6.9540793167083578e+01  6.9540789195702033e+01  6.9540785229864042e+01  6.9540779870746931e+01  6.9540773694614046e+01  6.9540763702388631e+01  6.9540760283069204e+01  6.9540756475326560e+01  6.9540753014528576e+01  6.9540748626069757e+01  6.9540744329966444e+01  6.9540740191376173e+01  6.9540736902203022e+01  6.9540733854652061e+01  6.9540730342491713e+01  6.9540727089394380e+01  6.9540724176992697e+01  6.9540720479575199e+01  6.9540717184936184e+01  6.9540717584073263e+01  6.9540715096339582e+01  6.9540710997887203e+01  6.9540705429494068e+01  6.9540702154484791e+01  6.9540701167862380e+01  6.9540699647919041e+01  6.9540696186521529e+01  6.9540691674762684e+01  6.9540691230454883e+01  6.9540687744499024e+01  6.9540687294399433e+01  6.9540687250204428e+01  6.9540682396088187e+01  6.9540679785370514e+01  6.9540677943177315e+01  6.9540675993537107e+01  6.9540672939623150e+01  6.9540672215872249e+01  6.9540669129216965e+01  6.9540666703891347e+01  6.9540666578658090e+01  6.9540666913734057e+01  6.9540665323753245e+01  6.9540662876033622e+01  6.9540662440810266e+01  6.9540661868548057e+01  6.9540660912756323e+01  6.9540660302269302e+01  6.9540658852603485e+01  6.9540657929962947e+01  6.9540657977985717e+01  6.9540656184788872e+01  6.9540652744319885e+01  6.9540655074996224e+01  6.9540654939188499e+01  6.9540655721410758e+01  6.9540656501013132e+01  6.9540654297229651e+01  6.9540654233965384e+01  6.9540653679270960e+01  6.9540653997757317e+01  6.9540655136992157e+01  6.9540656871399605e+01  6.9540658830798009e+01  6.9540660333779343e+01  6.9540661197323388e+01  6.9540663165983091e+01  8.9997564639626376e+01  8.9997571166602597e+01  8.9997578402858636e+01  8.9997587807847694e+01  8.9997601762549394e+01  8.9997619236726194e+01  8.9997639880007355e+01  8.9997665573451712e+01  8.9997693971829548e+01  8.9997727367415877e+01  8.9997759777073938e+01  8.9997794830050680e+01  8.9997838731737559e+01  8.9997885053388629e+01  8.9997935108204274e+01  8.9997987930393990e+01  8.9998044020002965e+01  8.9998104554321799e+01  8.9998173046292763e+01  8.9998240309721382e+01  8.9998308658160710e+01  8.9998389736242416e+01  8.9998474959187320e+01  8.9998563307057012e+01  8.9998656654835443e+01  8.9998754116070572e+01  8.9998855528256328e+01  8.9998965685780917e+01  8.9999085759796557e+01  8.9999209598883553e+01  8.9999338321956557e+01  8.9999623815170807e+01  8.9999779119224030e+01  8.9999942679953634e+01  9.0000115764928424e+01  9.0000300471219163e+01  9.0000492749477900e+01  9.0000696927229356e+01  9.0000920360890220e+01  9.0001154502506964e+01  9.0001401774577630e+01  9.0001663552328708e+01  9.0001939705809775e+01  9.0002230553157716e+01  9.0002540491290162e+01  9.0002863311253691e+01  9.0003202672834419e+01  9.0003557036357975e+01  9.0003924553160331e+01  9.0004302404923735e+01  9.0004686201461666e+01  9.0005076644403943e+01  9.0005465582669814e+01  9.0005837479661366e+01  9.0006213186140243e+01  9.0006554534364952e+01  9.0006873642721558e+01  9.0007159782508808e+01  9.0007405236006946e+01  9.0007593979243438e+01  9.0007744838137484e+01  9.0007831642608181e+01  9.0007837798035496e+01  9.0007752888209367e+01  9.0007613437083918e+01  9.0007423542697239e+01  9.0007185771677769e+01  9.0006905758042549e+01  9.0006594128362920e+01  9.0006253318063187e+01  9.0005892012195744e+01  9.0005521290517521e+01  9.0005141668796867e+01  9.0004754512809441e+01  9.0004376246815951e+01  9.0004003596864450e+01  9.0003644363506027e+01  9.0003293740145395e+01  9.0002958087316216e+01  9.0002638579621149e+01  9.0002334429215935e+01  9.0002042825152472e+01  9.0001767829596744e+01  9.0001504891233949e+01  9.0001260956640323e+01  9.0001030521098514e+01  9.0000806175643191e+01  9.0000599705088632e+01  9.0000402326155154e+01  9.0000216731618238e+01  9.0000041020016539e+01  8.9999872243507667e+01  8.9999714933353928e+01  8.9999424459210147e+01  8.9999291171316131e+01  8.9999163939249911e+01  8.9999041753348081e+01  8.9998928031427056e+01  8.9998819605551404e+01  8.9998720465036882e+01  8.9998626332987740e+01  8.9998534496344519e+01  8.9998446304453125e+01  8.9998363506092261e+01  8.9998285307744894e+01  8.9998214515874636e+01  8.9998149195465260e+01  8.9998085002755914e+01  8.9998025325250680e+01  8.9997970344546346e+01  8.9997916709871262e+01  8.9997866348421041e+01  8.9997822688145405e+01  8.9997783173495549e+01  8.9997745434809161e+01  8.9997710623729333e+01  8.9997680551599970e+01  8.9997654694083209e+01  8.9997632481517584e+01  8.9997614057463565e+01  8.9997596954296569e+01  8.9997583710574389e+01  8.9997574518465626e+01  8.9997567777466855e+01  7.1263337001205500e+01  7.1263349409555559e+01  7.1263363430017549e+01  7.1263379541211719e+01  7.1263396894956230e+01  7.1263413418014821e+01  7.1263432893013842e+01  7.1263452933952365e+01  7.1263473035521884e+01  7.1263495493078850e+01  7.1263518627114564e+01  7.1263541751773332e+01  7.1263567201271499e+01  7.1263593464190791e+01  7.1263620642141689e+01  7.1263647734630695e+01  7.1263674860126443e+01  7.1263703255120234e+01  7.1263731254349892e+01  7.1263757186733997e+01  7.1263782164561448e+01  7.1263808107796194e+01  7.1263835781963635e+01  7.1263859280446709e+01  7.1263879960756384e+01  7.1263898181900814e+01  7.1263912533670521e+01  7.1263926164323749e+01  7.1263937911426794e+01  7.1263944157530858e+01  7.1263944223022762e+01  7.1263934354202704e+01  7.1263923652458175e+01  7.1263911188233891e+01  7.1263893963598761e+01  7.1263872677007441e+01  7.1263848142004036e+01  7.1263823810766212e+01  7.1263795401673306e+01  7.1263764819035345e+01  7.1263734912052882e+01  7.1263703896448078e+01  7.1263672666188526e+01  7.1263641565372097e+01  7.1263611557709083e+01  7.1263581354335457e+01  7.1263551332651360e+01  7.1263524353431691e+01  7.1263498484495216e+01  7.1263472788591187e+01  7.1263447918691867e+01  7.1263425257588324e+01  7.1263404510899136e+01  7.1263380600037578e+01  7.1263363859286201e+01  7.1263347577787968e+01  7.1263329067015022e+01  7.1263312429716805e+01  7.1263300811529220e+01  7.1263288696793211e+01  7.1263272648894244e+01  7.1263259899487991e+01  7.1263236007538950e+01  7.1263226763735332e+01  7.1263214114080426e+01  7.1263204439292139e+01  7.1263197267736118e+01  7.1263189799653446e+01  7.1263180166287498e+01  7.1263170608270727e+01  7.1263164897420879e+01  7.1263161528658216e+01  7.1263155460280828e+01  7.1263150193980195e+01  7.1263145383189311e+01  7.1263138592854531e+01  7.1263134996591788e+01  7.1263132663654190e+01  7.1263128918697177e+01  7.1263125663395201e+01  7.1263125832959872e+01  7.1263123078813734e+01  7.1263123367704978e+01  7.1263125545546131e+01  7.1263125311190237e+01  7.1263125571416865e+01  7.1263128589646840e+01  7.1263131374527205e+01  7.1263133458300402e+01  7.1263135642503983e+01  7.1263139630966663e+01  7.1263143348366881e+01  7.1263149010560568e+01  7.1263155790720333e+01  7.1263163611712187e+01  7.1263169302956896e+01  7.1263174104599415e+01  7.1263179417014527e+01  7.1263183975292321e+01  7.1263188839382963e+01  7.1263194445576787e+01  7.1263198931656319e+01  7.1263204588017686e+01  7.1263209568653352e+01  7.1263212425665515e+01  7.1263218803850535e+01  7.1263223726858214e+01  7.1263225080935811e+01  7.1263229624604264e+01  7.1263232768612866e+01  7.1263235659499500e+01  7.1263239117140628e+01  7.1263243074780334e+01  7.1263247086450789e+01  7.1263251105073195e+01  7.1263255622776228e+01  7.1263260664715474e+01  7.1263267079129662e+01  7.1263272721700972e+01  7.1263279231592961e+01  7.1263286429339601e+01  7.1263294309211318e+01  7.1263303991598818e+01  7.1263314950998293e+01  9.0836857490004107e+01  9.0836762261417277e+01  9.0836618148334992e+01  9.0836420134931558e+01  9.0836178132634885e+01  9.0835894434877886e+01  9.0835576215699376e+01  9.0835234443292222e+01  9.0834870300316382e+01  9.0834492667911562e+01  9.0834110522230134e+01  9.0833724556597033e+01  9.0833343721979716e+01  9.0832970669366901e+01  9.0832607351894026e+01  9.0832255086095628e+01  9.0831916543259595e+01  9.0831600853685629e+01  9.0831295403811978e+01  9.0831003083250394e+01  9.0830730261698378e+01  9.0830471334268708e+01  9.0830228282342816e+01  9.0830000254533047e+01  9.0829784069399395e+01  9.0829579086266051e+01  9.0829384028998149e+01  9.0829202311855028e+01  9.0829035408268084e+01  9.0828875031392755e+01  9.0828726801864548e+01  9.0828447351156555e+01  9.0828319828420504e+01  9.0828200587919795e+01  9.0828089303076510e+01  9.0827982738986933e+01  9.0827882499195866e+01  9.0827787025873462e+01  9.0827698920404856e+01  9.0827616496786447e+01  9.0827535469960566e+01  9.0827461556710062e+01  9.0827395437324213e+01  9.0827334172234316e+01  9.0827274350122366e+01  9.0827218854033248e+01  9.0827170026670430e+01  9.0827124039459264e+01  9.0827081040552159e+01  9.0827041362931837e+01  9.0827005604015653e+01  9.0826973967405891e+01  9.0826945196266351e+01  9.0826925644614676e+01  9.0826908315736048e+01  9.0826890608347213e+01  9.0826875358125434e+01  9.0826866759675056e+01  9.0826861400343290e+01  9.0826859110875972e+01  9.0826859092463351e+01  9.0826864537082557e+01  9.0826887020669645e+01  9.0826900357454690e+01  9.0826914923125329e+01  9.0826940762130377e+01  9.0826969621800046e+01  9.0826995938433384e+01  9.0827028414392288e+01  9.0827065843518014e+01  9.0827106974025639e+01  9.0827150927685821e+01  9.0827203894937966e+01  9.0827261549467067e+01  9.0827318969556487e+01  9.0827382051077933e+01  9.0827451081567688e+01  9.0827524575916570e+01  9.0827599868717755e+01  9.0827678840875549e+01  9.0827765685635072e+01  9.0827858106807810e+01  9.0827952655321070e+01  9.0828051722186188e+01  9.0828154484621024e+01  9.0828260945714845e+01  9.0828370864132282e+01  9.0828486029994664e+01  9.0828603679498300e+01  9.0828724773919504e+01  9.0828847844642894e+01  9.0828976961099286e+01  9.0829109586244869e+01  9.0829385873081904e+01  9.0829530258472488e+01  9.0829679774482003e+01  9.0829839390388031e+01  9.0830006695705848e+01  9.0830181450254315e+01  9.0830363984903997e+01  9.0830556251119205e+01  9.0830763052923572e+01  9.0830980943308674e+01  9.0831212850840885e+01  9.0831459981384739e+01  9.0831722536571732e+01  9.0832000440397081e+01  9.0832294261354619e+01  9.0832605165528577e+01  9.0832926494834709e+01  9.0833265709471192e+01  9.0833616276664088e+01  9.0833971373375633e+01  9.0834331985346083e+01  9.0834692843620701e+01  9.0835048063233018e+01  9.0835390667404639e+01  9.0835713141603406e+01  9.0836011014593083e+01  9.0836273848201998e+01  9.0836494909486078e+01  9.0836673214872732e+01  9.0836800599563389e+01  9.0836876542493101e+01  1.3761994065416177e+00  1.7475307965719196e+00  2.1088581678818992e+00  2.4591813945430996e+00  2.7981548037988997e+00  3.1265301789266089e+00  3.4473805268653948e+00  3.7618032778808366e+00  4.0699592312556367e+00  4.3697308825597432e+00  4.6619009190766123e+00  4.9342372926095575e+00  5.1784955715196563e+00  5.3861471513237946e+00  5.5508251298564293e+00  5.6664687403579457e+00  5.7446313416054702e+00  5.7909369454494266e+00  5.8153718073836567e+00  5.8289791760852436e+00  5.8411974827851907e+00  5.8573134970991161e+00  5.8793278505765745e+00  5.9072347767441622e+00  5.9392950582764650e+00  5.9728940862875710e+00  6.0050207134195297e+00  6.0339541673514052e+00  6.0578615702983729e+00  6.0746625848157159e+00  6.0868784819189994e+00  6.0932957694497452e+00  6.0960695608956073e+00  6.0979244497768725e+00  6.1026218181010838e+00  6.1154047085633980e+00  6.1377915744350346e+00  6.1750491545478585e+00  6.2250144464120183e+00  6.2883238582167653e+00  6.3568177103030132e+00  6.4220985581870735e+00  6.4689636719105241e+00  6.4869506036673013e+00  6.4699384099576767e+00  6.4067470146775403e+00  6.3034479422401439e+00  6.1718728088561692e+00  6.0257744157458930e+00  5.8764151520827577e+00  5.7358820559075845e+00  5.6108283585062155e+00  5.5040923616870856e+00  5.4163764377683012e+00  5.3473203325215444e+00  5.2941737706503371e+00  5.2550309724581519e+00  5.2285389361445853e+00  5.2130986022970873e+00  1.0000000000000000e+00  1.0000000000000000e+00  1.0000000000000000e+00  1.0000000000000000e+00  1.0000000000000000e+00  1.0000000000000000e+00  1.0000000000000000e