<?xml version="1.0"?>
<VTKFile type="UnstructuredGrid"  version="0.1"  >
<UnstructuredGrid>
<Piece  NumberOfPoints="1826" NumberOfCells="3452">
<Points>
<DataArray  type="Float64"  NumberOfComponents="3"  format="ascii">0 0 0  0 2 0  1 2 0  1 0 0  0 1.5 0  0 0.5 0  0.5 1 0  0.03270156468211589 1.498929461614907 0  0.06526309623861858 1.495722430669976 0  0.0975451612174474 1.490392640159966 0  0.1294095228334242 1.482962913068929 0  0.1607197330395174 1.473465064615866 0  0.1913417166827912 1.461939766048435 0  0.2211443457134849 1.448436370468492 0  0.2500000006885261 1.433012701494699 0  0.2777851172638959 1.415734805647403 0  0.3043807153156688 1.396676669523079 0  0.3296729083861843 1.375919903006205 0  0.3535533914531431 1.353553389733404 0  0.3759199044829808 1.329672906702244 0  0.3966766707391871 1.304380713730806 0  0.4157348066966072 1.27778511569365 0  0.433012702319451 1.249999999260013 0  0.4484363711057253 1.221144344421304 0  0.4619397665153352 1.191341715555593 0  0.4734650649037118 1.160719732191551 0  0.4829629132698931 1.129409522083414 0  0.4903926402635492 1.097545160696701 0  0.4957224307066402 1.065263095960124 0  0.4989294616245774 1.032701564534581 0  0.4989294616162002 0.9672984353376084 0  0.4957224306699188 0.9347369037609494 0  0.4903926401578175 0.9024548387717499 0  0.482962913061636 0.8705904771393596 0  0.4734650646140292 0.8392802669550714 0  0.4619397660502575 0.8086582833216098 0  0.4484363705190297 0.7788556543889953 0  0.4330127015665935 0.7499999994359995 0  0.4157348057254738 0.722214882852946 0  0.3966766696006365 0.6956192847854065 0  0.3759199030982872 0.6703270917188153 0  0.3535533898676612 0.6464466086811137 0  0.3296729068539963 0.6240800956501023 0  0.304380713880217 0.6033233293754604 0  0.2777851159048961 0.5842651934445428 0  0.2499999993997783 0.5669872977612425 0  0.2211443445099805 0.5515636289380053 0  0.1913417156395864 0.5380602335194558 0  0.1607197321784864 0.5265349350918533 0  0.1294095221658038 0.5170370867521831 0  0.09754516071925461 0.509607359740937 0  0.06526309591935731 0.5042775692879928 0  0.0327015645246888 0.5010705383747742 0  0 1.533333333333333 0  0 1.566666666666666 0  0 1.6 0  0 1.633333333333333 0  0 1.666666666666666 0  0 1.7 0  0 1.733333333333333 0  0 1.766666666666666 0  0 1.8 0  0 1.833333333333333 0  0 1.866666666666666 0  0 1.9 0  0 1.933333333333333 0  0 1.966666666666667 0  0.0333333333332695 2 0  0.06666666666653284 2 0  0.09999999999981467 2 0  0.1333333333330856 2 0  0.1666666666663217 2 0  0.1999999999995579 2 0  0.2333333333327941 2 0  0.2666666666660302 2 0  0.2999999999992664 2 0  0.3333333333325026 2 0  0.3666666666657388 2 0  0.399999999998975 2 0  0.4333333333322111 2 0  0.4666666666654473 2 0  0.4999999999986943 2 0  0.5333333333321045 2 0  0.5666666666655257 2 0  0.5999999999989467 2 0  0.6333333333323679 2 0  0.6666666666657889 2 0  0.6999999999992101 2 0  0.7333333333326312 2 0  0.7666666666660523 2 0  0.7999999999994734 2 0  0.8333333333328945 2 0  0.8666666666663155 2 0  0.8999999999997367 2 0  0.9333333333331578 2 0  0.966666666666579 2 0  1 1.966666666666528 0  1 1.933333333333056 0  1 1.899999999999584 0  1 1.866666666666111 0  1 1.833333333332639 0  1 1.799999999999167 0  1 1.766666666665695 0  1 1.733333333332408 0  1 1.699999999999306 0  1 1.666666666666204 0  1 1.633333333333102 0  1 1.6 0  1 1.566666666666898 0  1 1.533333333333796 0  1 1.500000000000693 0  1 1.466666666667591 0  1 1.433333333334489 0  1 1.400000000001387 0  1 1.366666666668285 0  1 1.333333333335183 0  1 1.300000000002081 0  1 1.266666666668979 0  1 1.233333333335876 0  1 1.200000000002774 0  1 1.166666666669672 0  1 1.13333333333657 0  1 1.100000000003468 0  1 1.066666666670365 0  1 1.033333333337263 0  1 1.000000000004118 0  1 0.9666666666706891 0  1 0.9333333333372169 0  1 0.9000000000037447 0  1 0.8666666666702729 0  1 0.8333333333368007 0  1 0.8000000000033289 0  1 0.7666666666698567 0  1 0.7333333333363847 0  1 0.7000000000029127 0  1 0.6666666666694405 0  1 0.6333333333359688 0  1 0.6000000000024965 0  1 0.5666666666690245 0  1 0.5333333333355526 0  1 0.5000000000020806 0  1 0.4666666666686086 0  1 0.4333333333351364 0  1 0.4000000000016646 0  1 0.3666666666681924 0  1 0.3333333333347204 0  1 0.3000000000012484 0  1 0.2666666666677764 0  1 0.2333333333343044 0  1 0.2000000000008322 0  1 0.1666666666673602 0  1 0.1333333333338882 0  1 0.1000000000004162 0  1 0.06666666666694421 0  1 0.03333333333347221 0  0.9666666666665279 0 0  0.9333333333330557 0 0  0.8999999999995836 0 0  0.866666666666204 0 0  0.8333333333331019 0 0  0.7999999999999998 0 0  0.7666666666668978 0 0  0.7333333333337957 0 0  0.7000000000006936 0 0  0.6666666666675913 0 0  0.6333333333344893 0 0  0.6000000000013871 0 0  0.5666666666682849 0 0  0.5333333333351827 0 0  0.5000000000020588 0 0  0.4666666666686085 0 0  0.4333333333351365 0 0  0.4000000000016645 0 0  0.3666666666681924 0 0  0.3333333333347203 0 0  0.3000000000012483 0 0  0.2666666666677763 0 0  0.2333333333343043 0 0  0.2000000000008323 0 0  0.1666666666673602 0 0  0.1333333333338882 0 0  0.1000000000004161 0 0  0.0666666666669441 0 0  0.0333333333334721 0 0  0 0.03333333333326642 0  0 0.06666666666654278 0  0 0.09999999999977896 0  0 0.1333333333330151 0  0 0.1666666666662513 0  0 0.1999999999994875 0  0 0.2333333333327237 0  0 0.2666666666660523 0  0 0.2999999999994734 0  0 0.3333333333328944 0  0 0.3666666666663156 0  0 0.3999999999997367 0  0 0.4333333333331578 0  0 0.4666666666665789 0  0.9720078389024227 0.3839053532097723 0  0.617714119735604 1.970110789132251 0  0.360436615368792 0.6138605770588632 0  0.3861391408373002 1.360436568830364 0  0.6158539563312924 0.03000762759539893 0  0.9717935515957234 1.616666626512302 0  0.4503349544302358 1.969648275004308 0  0.971882106318013 0.5513257414571178 0  0.4832230822237064 0.02880256548533452 0  0.9680550601811584 1.485415443148804 0  0.2771035102119069 1.448185256529393 0  0.4458774496995793 0.7223602678824738 0  0.4533241458832291 1.281448389160051 0  0.2781792205668452 0.5509616878268755 0  0.9717452944966031 1.350906751383709 0  0.3454106315521234 0.03238020337054486 0  0.3186117014980386 1.966955099533295 0  0.9711347960771812 0.6833536721060691 0  0.5036698364244122 1.152746013442924 0  0.1860122617942576 0.5084274565062483 0  0.4937463876730742 0.8149807178595522 0  0.1872152389157827 1.494039785070142 0  0.5210700744430521 0.9127634476549851 0  0.524933634865593 1.052632346936693 0  0.9693717560540478 1.221014467412183 0  0.9687206903403258 0.8162768106783722 0  0.9711312122378168 1.749996427585009 0  0.970500628478481 0.254139416233656 0  0.02916719237315252 0.2492648760911981 0  0.9722863462155804 0.9844327334615476 0  0.02786892478775306 1.744200008206097 0  0.7488456770242349 0.02820125386544082 0  0.7523277710648727 1.973426192888972 0  0.2140787413778554 0.02877618616151802 0  0.9711364571459248 1.083355903781838 0  0.2169848950239913 1.971579900016079 0  0.02881023588754362 0.3499334554987744 0  0.02791676764214552 1.651094984405274 0  0.8499999999996527 0.028867513459281 0  0.9711287806663959 1.849988594518703 0  0.02851037092184827 1.85093369324506 0  0.02657828146940976 0.150643934033407 0  0.8499999999996051 1.971132486540443 0  0.9722529173995872 0.1500005893012214 0  0.4068191891483002 0.6636920992269496 0  0.3350026989549613 1.408201967981129 0  0.1199116737774518 0.4857268767584789 0  0.1204187930047024 1.513873875942757 0  0.4805695625410146 1.217138773642566 0  0.5277851164938279 0.9827221042345209 0  0.119837550128076 1.973629410017125 0  0.1166666666671521 0.02886751345960137 0  0.9682521974352188 0.9108673130395039 0  0.9706868372895046 0.7493756625672435 0  0.9711467530947417 1.149989386991826 0  0.3826982123876945 1.974254620796579 0  0.9698162189036239 1.283001313879302 0  0.4166627969981543 0.02746179814651353 0  0.2872631251309998 0.02679824962056108 0  0.5168380265331751 1.97244577901132 0  0.9711324865403987 0.6166666666692325 0  0.9725417101231546 0.4821867878748348 0  0.9698923354474316 0.3157971629507325 0  0.9713419917306593 1.416354851752134 0  0.9724305780841475 1.551562542796151 0  0.6838219518835558 0.02764660321906097 0  0.5553440936651212 0.02781033190148053 0  0.9726632206974235 1.683336737424733 0  0.6829090121447372 1.970000184065786 0  0.9175918875372968 0.02597956753713117 0  0.9711325218105137 1.916666459441907 0  0.02886751345955729 0.4166666666664472 0  0.02677164657045288 1.582937909465663 0  0.02886751345948118 1.916666666666664 0  0.02865690373672858 0.08801859303668916 0  0.9195595366229911 1.970122770999841 0  0.9720021612961098 0.0833336963013817 0  0.05115120872995726 0.4690323303711653 0  0.05269500611065072 1.528787610295459 0  0.05178002557939538 1.966395686274313 0  0.05140458396007705 0.02673655882539323 0  0.3616409345951798 1.384817800346419 0  0.3939272572701683 1.392574538781407 0  0.418207575634964 1.368006386833963 0  0.4268527929559288 1.399757575186024 0  0.4493566380802698 1.375855723426926 0  0.4588451293568834 1.407100707228751 0  0.4812514503637211 1.383227559008882 0  0.4907967045583129 1.414610773974569 0  0.5132410737626676 1.390651514070399 0  0.5227761079756692 1.422127024422278 0  0.5001342124208662 1.446051934255468 0  0.5323120866844422 1.453586540944832 0  0.5098471362349171 1.477612267480779 0  0.5419046956524318 1.485091594958289 0  0.5192034712687923 1.509197236374241 0  0.5514545151622942 1.516634039703928 0  0.5287159014415425 1.540760833069334 0  0.5610288756892836 1.548195589099703 0  0.5452445998431892 1.398124619988478 0  0.5384598782671842 1.572283853892179 0  0.5706498099969673 1.579772058958165 0  0.5835804631939807 1.52410372335701 0  0.5480511297529302 1.603845755198654 0  0.5801806458775207 1.611374409273168 0  0.5159060176415489 1.596362816749754 0  0.5255054924914806 1.627971368508004 0  0.4933296706540445 1.620464464316733 0  0.5028842050597351 1.652055251553636 0  0.47072692463918 1.644567885612958 0  0.4802695885647741 1.676160325444355 0  0.
[...]
<CellData  Tensors="u"> 
<DataArray  type="Float64"  Name="u"  NumberOfComponents="9" format="ascii">5.1435068465436250e+06 2.8576431502431981e+07 0.0000000000000000e+00 2.8576431502431981e+07 -1.6837828413054127e+08 0.0000000000000000e+00 0.0000000000000000e+00 0.0000000000000000e+00 0.0000000000000000e+00  -4.2134280106950775e+06 1.7891415896323178e+07 0.0000000000000000e+00 1.7891415896323178e+07 -9.1693082312989086e+07 0.0000000000000000e+00 0.0000000000000000e+00 0.0000000000000000e+00 0.0000000000000000e+00  -7.7865983233549818e+05 -7.2412280421674419e+06 0.0000000000000000e+00 -7.2412280421674419e+06 -9.1034636153939217e+07 0.0000000000000000e+00 0.0000000000000000e+00 0.0000000000000000e+00 0.0000000000000000e+00  5.3246464046281669e+06 -2.1700335937867342e+06 0.0000000000000000e+00 -2.1700335937867342e+06 1.0756225761525098e+07 0.0000000000000000e+00 0.0000000000000000e+00 0.0000000000000000e+00 0.0000000000000000e+00  4.5271540796645507e+06 -7.0855536466684542e+05 0.0000000000000000e+00 -7.0855536466684542e+05 -1.0120599591589500e+08 0.0000000000000000e+00 0.0000000000000000e+00 0.0000000000000000e+00 0.0000000000000000e+00  3.5887535369500518e+05 2.7169300496766206e+07 0.0000000000000000e+00 2.7169300496766206e+07 -1.7166833867584971e+08 0.0000000000000000e+00 0.0000000000000000e+00 0.0000000000000000e+00 0.0000000000000000e+00  4.2735177369628400e+06 1.6040505450293317e+05 0.0000000000000000e+00 1.6040505450293317e+05 -1.7432763125978225e+08 0.0000000000000000e+00 0.0000000000000000e+00 0.0000000000000000e+00 0.0000000000000000e+00  7.2105600186815694e+07 4.1475321084884368e+07 0.0000000000000000e+00 4.1475321084884368e+07 -2.9274593535524122e+07 0.0000000000000000e+00 0.0000000000000000e+00 0.0000000000000000e+00 0.0000000000000000e+00  -5.4852996757792160e+06 4.7759808566101566e+06 0.0000000000000000e+00 4.7759808566101566e+06 -9.9964584572542369e+07 0.0000000000000000e+00 0.0000000000000000e+00 0.0000000000000000e+00 0.0000000000000000e+00  5.9652085425735638e+05 -6.1175703491732001e+05 0.0000000000000000e+00 -6.1175703491732001e+05 -9.9733085876635388e+07 0.0000000000000000e+00 0.0000000000000000e+00 0.0000000000000000e+00 0.0000000000000000e+00  -3.5768874231102698e+07 8.0769492019776970e+07 0.0000000000000000e+00 8.0769492019776970e+07 -2.2124569499195865e+08 0.0000000000000000e+00 0.0000000000000000e+00 0.0000000000000000e+00 0.0000000000000000e+00  -7.6074924710989758e+07 6.6639328324724110e+06 0.0000000000000000e+00 6.6639328324724110e+06 -9.9618705445867732e+07 0.0000000000000000e+00 0.0000000000000000e+00 0.0000000000000000e+00 0.0000000000000000e+00  -1.3126995546109330e+07 7.8068499571598209e+06 0.0000000000000000e+00 7.8068499571598209e+06 -1.0599762818136221e+08 0.0000000000000000e+00 0.0000000000000000e+00 0.0000000000000000e+00 0.0000000000000000e+00  4.7921383719733864e+07 2.7231179524518191e+06 0.0000000000000000e+00 2.7231179524518191e+06 1.3193737866401903e+07 0.0000000000000000e+00 0.0000000000000000e+00 0.0000000000000000e+00 0.0000000000000000e+00  -2.5956471474730112e+06 -9.3229827277611922e+06 0.0000000000000000e+00 -9.3229827277611922e+06 -7.1176752496684521e+07 0.0000000000000000e+00 0.0000000000000000e+00 0.0000000000000000e+00 0.0000000000000000e+00  -1.3662674919977868e+08 1.1819665791403081e+07 0.0000000000000000e+00 1.1819665791403081e+07 -8.9103605074322641e+07 0.0000000000000000e+00 0.0000000000000000e+00 0.0000000000000000e+00 0.0000000000000000e+00  3.8720683814244866e+06 -1.9032914042057481e+06 0.0000000000000000e+00 -1.9032914042057481e+06 -1.0086035219250190e+08 0.0000000000000000e+00 0.0000000000000000e+00 0.0000000000000000e+00 0.0000000000000000e+00  8.0509124570882320e+05 1.9800851762023049e+06 0.0000000000000000e+00 1.9800851762023049e+06 -2.2150913566471690e+08 0.0000000000000000e+00 0.0000000000000000e+00 0.0000000000000000e+00 0.0000000000000000e+00  9.3210311290672779e+07 1.0555612041499795e+07 0.0000000000000000e+00 1.0555612041499795e+07 1.2304615441747848e+07 0.0000000000000000e+00 0.0000000000000000e+00 0.0000000000000000e+00 0.0000000000000000e+00  3.1019874944034964e+05 -7.2962643435543776e+05 0.0000000000000000e+00 -7.2962643435543776e+05 -1.0000600525475571e+08 0.0000000000000000e+00 0.0000000000000000e+00 0.0000000000000000e+00 0.0000000000000000e+00  -7.4057181741344081e+06 -2.6549451155544193e+06 0.0000000000000000e+00 -2.6549451155544193e+06 -2.4152496927260339e+07 0.0000000000000000e+00 0.0000000000000000e+00 0.0000000000000000e+00 0.0000000000000000e+00  1.9411689754437245e+06 -4.5524194864928443e+06 0.0000000000000000e+00 -4.5524194864928443e+06 -8.2313926469295219e+07 0.0000000000000000e+00 0.0000000000000000e+00 0.0000000000000000e+00 0.0000000000000000e+00  -1.1996881868331777e+07 -4.6030766867675312e+05 0.0000000000000000e+00 -4.6030766867675312e+05 5.6839449350278303e+06 0.0000000000000000e+00 0.0000000000000000e+00 0.0000000000000000e+00 0.0000000000000000e+00  2.9206121579217132e+07 -3.1299031660869410e+06 0.0000000000000000e+00 -3.1299031660869410e+06 -2.3193942440732125e+07 0.0000000000000000e+00 0.0000000000000000e+00 0.0000000000000000e+00 0.0000000000000000e+00  8.6430114775639966e+07 2.6710800502636001e+07 0.0000000000000000e+00 2.6710800502636001e+07 -1.7495543910824299e+07 0.0000000000000000e+00 0.0000000000000000e+00 0.0000000000000000e+00 0.0000000000000000e+00  -1.2112900268527424e+07 -5.7587853080695658e+05 0.0000000000000000e+00 -5.7587853080695658e+05 5.3619643665561695e+06 0.0000000000000000e+00 0.0000000000000000e+00 0.0000000000000000e+00 0.0000000000000000e+00  1.4537947002167178e+06 -1.8876820429431300e+06 0.0000000000000000e+00 -1.8876820429431300e+06 -9.9909701437273070e+07 0.0000000000000000e+00 0.0000000000000000e+00 0.0000000000000000e+00 0.0000000000000000e+00  -8.8606020518004119e+07 2.3393871079812277e+07 0.0000000000000000e+00 2.3393871079812277e+07 -9.6473232407594949e+07 0.0000000000000000e+00 0.0000000000000000e+00 0.0000000000000000e+00 0.0000000000000000e+00  3.5892225187908575e+07 -2.8245145169956619e+06 0.0000000000000000e+00 -2.8245145169956619e+06 -4.3344895436216563e+07 0.0000000000000000e+00 0.0000000000000000e+00 0.0000000000000000e+00 0.0000000000000000e+00  -2.5975223851529062e+07 -7.1543658599645169e+06 0.0000000000000000e+00 -7.1543658599645169e+06 -3.1167139548495060e+08 0.0000000000000000e+00 0.0000000000000000e+00 0.0000000000000000e+00 0.0000000000000000e+00  4.9320775462353028e+07 3.9431641277790621e+07 0.0000000000000000e+00 3.9431641277790621e+07 -2.5379887825604808e+07 0.0000000000000000e+00 0.0000000000000000e+00 0.0000000000000000e+00 0.0000000000000000e+00  3.6860871355630271e+06 -3.2181477255737856e+06 0.0000000000000000e+00 -3.2181477255737856e+06 -9.3790030656839922e+07 0.0000000000000000e+00 0.0000000000000000e+00 0.0000000000000000e+00 0.0000000000000000e+00  2.4068684889947250e+06 2.2758132950278986e+06 0.0000000000000000e+00 2.2758132950278986e+06 -1.7658204508641201e+08 0.0000000000000000e+00 0.0000000000000000e+00 0.0000000000000000e+00 0.0000000000000000e+00  -4.2122806193252560e+06 -2.1860243710684953e+06 0.0000000000000000e+00 -2.1860243710684953e+06 -4.7211827290260330e+07 0.0000000000000000e+00 0.0000000000000000e+00 0.0000000000000000e+00 0.0000000000000000e+00  -2.5625634649466854e+06 -1.7662895947118630e+06 0.0000000000000000e+00 -1.7662895947118630e+06 -3.8631595804963894e+07 0.0000000000000000e+00 0.0000000000000000e+00 0.0000000000000000e+00 0.0000000000000000e+00  -1.1906996729153354e+07 -3.9659709198877623e+05 0.0000000000000000e+00 -3.9659709198877623e+05 1.3588845707276394e+06 0.0000000000000000e+00 0.0000000000000000e+00 0.0000000000000000e+00 0.0000000000000000e+00  -1.4157480488330232e+07 -8.9437150104388493e+04 0.0000000000000000e+00 -8.9437150104388493e+04 -3.2772028947375399e+08 0.0000000000000000e+00 0.0000000000000000e+00 0.0000000000000000e+00 0.0000000000000000e+00  -6.9635025605040938e+07 1.0076373227868946e+08 0.0000000000000000e+00 1.0076373227868946e+08 -2.4808420483536503e+08 0.0000000000000000e+00 0.0000000000000000e+00 0.0000000000000000e+00 0.0000000000000000e+00  2.4998176401918340e+06 -7.8830529297078482e+05 0.0000000000000000e+00 -7.8830529297078482e+05 8.9402122399450224e+06 0.0000000000000000e+00 0.0000000000000000e+00 0.0000000000000000e+00 0.0000000000000000e+00  -2.0716447356087968e+07 -4.4590659406114720e+07 0.0000000000000000e+00 -4.4590659406114720e+07 -2.0397079154114869e+08 0.0000000000000000e+00 0.0000000000000000e+00 0.0000000000000000e+00 0.0000000000000000e+00  9.1720059683619991e+07 1.3626902050826138e+07 0.0000000000000000e+00 1.3626902050826138e+07 1.2730741830735305e+07 0.0000000000000000e+00 0.0000000000000000e+00 0.0000000000000000e+00 0.0000000000000000e+00  -4.8318583837703571e+07 3.7039445432122998e+07 0.0000000000000000e+00 3.7039445432122998e+07 -3.6704473715643048e+08 0.0000000000000000e+00 0.0000000000000000e+00 0.0000000000000000e+00 0.0000000000000000e+00  -3.5036279503400363e+06 1.0167003309498411e+07 0.0000000000000000e+00 1.0167003309498411e+07 -8.5586270395378426e+07 0.0000000000000000e+00 0.0000000000000000e+00 0.0000000000000000e+00 0.0000000000000000e+00  -1.9052175229834503e+08 4.7057580186719242e+06 0.0000000000000000e+00 4.7057580186719242e+06 -9.8844572696582705e+07 0.0000000000000000e+00 0.0000000000000000e+00 0.0000000000000000e+00 0.0000000000000000e+00  -3.6334087549557507e+07 2.0098546781459076e+06 0.0000000000000000e+00 2.0098546781459076e+06 -4.0155333540414560e+08 0.0000000000000000e+00 0.0000000000000000e+00 0.0000000000000000e+00 0.0000000000000000e+00  -1.0645215492180735e+08 1.7885676006279323e+07 0.0000000000000000e+00 1.7885676006279323e+07 -1.0499980666178370e+08 0.0000000000000000e+00 0.0000000000000000e+00 0.0000000000000000e+00 0.0000000000000000e+00  -4.2466248059989661e+06 -3.3496663275800925e+07 0.0000000000000000e+00 -3.3496663275800925e+07 -1.8796838828253815e+08 0.0000000000000000e+00 0.0000000000000000e+00 0.0000000000000000e+00 0.0000000000000000e+00  2.8787438160124570e+06 -2.0193008942815255e+07 0.0000000000000000e+00 -2.0193008942815255e+07 -1.6836613766894543e+08 0.0000000000000000e+00 0.0000000000000000e+00 0.0000000000000000e+00 0.0000000000000000e+00  1.8114369183099464e+07 -1.6963936261350926e+07 0.0000000000000000e+00 -1.6963936261350926e+07 -1.3426059955091912e+08 0.0000000000000000e+00 0.0000000000000000e+00 0.0000000000000000e+00 0.0000000000000000e+00  4.4835297312031016e+06 -8.0587834070502466e+05 0.0000000000000000e+00 -8.0587834070502466e+05 -1.2832311792744754e+08 0.0000000000000000e+00 0.0000000000000000e+00 0.0000000000000000e+00 0.0000000000000000e+00  1.2964988072245471e+08 7.3471005481743263e+06 0.0000000000000000e+00 7.3471005481743263e+06 1.8690528222291397e+06 0.0000000000000000e+00 0.0000000000000000e+00 0.0000000000000000e+00 0.0000000000000000e+00  6.8484852922085226e+07 9.7288271011547558e+06 0.0000000000000000e+00 9.7288271011547558e+06 4.3745014143343717e+06 0.0000000000000000e+00 0.0000000000000000e+00 0.0000000000000000e+00 0.0000000000000000e+00  6.5076528753035121e+07 1.4266263907978518e+07 0.0000000000000000e+00 1.4266263907978518e+07 8.9328146478989087e+06 0.0000000000000000e+00 0.0000000000000000e+00 0.0000000000000000e+00 0.0000000000000000e+00  -1.6328758914426911e+08 9.1466044655017667e+06 0.0000000000000000e+00 9.1466044655017667e+06 -9.4658292509367496e+07 0.0000000000000000e+00 0.0000000000000000e+00 0.0000000000000000e+00 0.0000000000000000e+00  -4.9284178501460105e+07 1.2738094698316192e+07 0.0000000000000000e+00 1.2738094698316192e+07 -5.4744946044652656e+07 0.0000000000000000e+00 0.0000000000000000e+00 0.0000000000000000e+00 0.0000000000000000e+00  1.7227836035483181e+06 5.4910975257885111e+06 0.0000000000000000e+00 5.4910975257885111e+06 -2.1789538464827749e+08 0.0000000000000000e+00 0.0000000000000000e+00 0.0000000000000000e+00 0.0000000000000000e+00  1.1301779783547632e+06 -4.4655511504379176e+06 0.0000000000000000e+00 -4.4655511504379176e+06 -5.8521202182002053e+07 0.0000000000000000e+00 0.0000000000000000e+00 0.0000000000000000e+00 0.0000000000000000e+00  1.1801549268845245e+06 1.7971935409758847e+07 0.0000000000000000e+00 1.7971935409758847e+07 -1.8407542744615123e+08 0.0000000000000000e+00 0.0000000000000000e+00 0.0000000000000000e+00 0.0000000000000000e+00  -3.4309158944799267e+07 5.4647993459864452e+07 0.0000000000000000e+00 5.4647993459864452e+07 -2.7501693450128269e+08 0.0000000000000000e+00 0.0000000000000000e+00 0.0000000000000000e+00 0.0000000000000000e+00  -1.2352577770967853e+08 6.0242058608245794e+06 0.0000000000000000e+00 6.0242058608245794e+06 -8.6294157474466532e+07 0.0000000000000000e+00 0.0000000000000000e+00 0.0000000000000000e+00 0.0000000000000000e+00  3.4238991595147923e+05 -3.8202569673843891e+05 0.0000000000000000e+00 -3.8202569673843891e+05 -1.0112611594694057e+08 0.0000000000000000e+00 0.0000000000000000e+00 0.0000000000000000e+00 0.0000000000000000e+00  -1.1885560029013785e+07 -6.8628689793057498e+06 0.0000000000000000e+00 -6.8628689793057498e+06 -2.6368477609453863e+08 0.0000000000000000e+00 0.0000000000000000e+00 0.0000000000000000e+00 0.0000000000000000e+00  3.6849093988469496e+07 -7.4298466071379911e+06 0.0000000000000000e+00 -7.4298466071379911e+06 -3.3985746555255994e+07 0.0000000000000000e+00 0.0000000000000000e+00 0.0000000000000000e+00 0.0000000000000000e+00  1.8328336775451088e+08 -7.1076296662855512e+06 0.0000000000000000e+00 -7.1076296662855512e+06 1.3967744030920029e+07 0.0000000000000000e+00 0.0000000000000000e+00 0.0000000000000000e+00 0.0000000000000000e+00  -7.0444674396594353e+06 2.4207630296688154e+06 0.0000000000000000e+00 2.4207630296688154e+06 -9.7333609052860469e+07 0.0000000000000000e+00 0.0000000000000000e+00 0.0000000000000000e+00 0.0000000000000000e+00  -1.8051613972978231e+07 8.5331108036163636e+06 0.0000000000000000e+00 8.5331108036163636e+06 -1.0090220976121876e+08 0.0000000000000000e+00 0.0000000000000000e+00 0.0000000000000000e+00 0.0000000000000000e+00  -3.1717577333087586e+06 1.0205499618645048e+07 0.0000000000000000e+00 1.0205499618645048e+07 -6.9681431997391403e+07 0.0000000000000000e+00 0.0000000000000000e+00 0.0000000000000000e+00 0.0000000000000000e+00  3.4838360067464784e+06 2.7187708975355094e+06 0.0000000000000000e+00 2.7187708975355094e+06 -1.6784316118126896e+08 0.0000000000000000e+00 0.0000000000000000e+00 0.0000000000000000e+00 0.0000000000000000e+00  4.1580434282767773e+05 1.8762616726685163e+07 0.0000000000000000e+00 1.8762616726685163e+07 -3.7536325035913065e+07 0.0000000000000000e+00 0.0000000000000000e+00 0.0000000000000000e+00 0.0000000000000000e+00  -1.1623272804833185e+07 -1.0702184803143267e+06 0.0000000000000000e+00 -1.0702184803143267e+06 3.0267581770672146e+06 0.0000000000000000e+00 0.0000000000000000e+00 0.0000000000000000e+00 0.0000000000000000e+00  -8.3554715916828379e+07 7.6365850859517157e+06 0.0000000000000000e+00 7.6365850859517157e+06 -1.0115195213005549e+08 0.0000000000000000e+00 0.0000000000000000e+00 0.0000000000000000e+00 0.0000000000000000e+00  -6.2171373695569851e+07 7.3216629168770807e+06 0.0000000000000000e+00 7.3216629168770807e+06 -9.9608572526543632e+07 0.0000000000000000e+00 0.0000000000000000e+00 0.0000000000000000e+00 0.0000000000000000e+00  -1.1012723823319865e+07 6.4376600495521724e+06 0.0000000000000000e+00 6.4376600495521724e+06 -1.0311017036253905e+08 0.0000000000000000e+00 0.0000000000000000e+00 0.0000000000000000e+00 0.0000000000000000e+00  3.2832638548981734e+06 8.3669658025745815e+06 0.0000000000000000e+00 8.3669658025745815e+06 -7.7635356481042325e+07 0.0000000000000000e+00 0.0000000000000000e+00 0.0000000000000000e+00 0.0000000000000000e+00  3.7628061702849902e+07 -4.6916756326541994e+06 0.0000000000000000e+00 -4.6916756326541994e+06 -4.8988100544102244e+07 0.0000000000000000e+00 0.0000000000000000e+00 0.0000000000000000e+00 0.0000000000000000e+00  -9.1431194324696325e+06 -1.1726381614002490e+06 0.0000000000000000e+00 -1.1726381614002490e+06 7.4511369022080870e+06 0.0000000000000000e+00 0.0000000000000000e+00 0.0000000000000000e+00 0.0000000000000000e+00  -4.9967281590763852e+06 4.1550544288084842e+06 0.0000000000000000e+00 4.1550544288084842e+06 -1.0194076905762807e+08 0.0000000000000000e+00 0.0000000000000000e+00 0.0000000000000000e+00 0.0000000000000000e+00  4.9176824816685915e+06 -2.3163806570957247e+04 0.0000000000000000e+00 -2.3163806570957247e+04 -1.1917605247792757e+08 0.0000000000000000e+00 0.0000000000000000e+00 0.0000000000000000e+00 0.0000000000000000e+00  1.2305030243345688e+06 -1.3544420779013078e+05 0.0000000000000000e+00 -1.3544420779013078e+05 -1.0026685582525955e+08 0.0000000000000000e+00 0.0000000000000000e+00 0.0000000000000000e+00 0.0000000000000000e+00  8.2679895612121709e+06 -2.4444410567083694e+07 0.0000000000000000e+00 -2.4444410567083694e+07 -7.9645283071896091e+07 0.0000000000000000e+00 0.0000000000000000e+00 0.0000000000000000e+00 0.0000000000000000e+00  6.9517677902882278e+07 5.7878794642474772e+06 0.0000000000000000e+00 5.7878794642474772e+06 6.0976335300229257e+06 0.0000000000000000e+00 0.0000000000000000e+00 0.0000000000000000e+00 0.0000000000000000e+00  5.5459607591361105e+07 -1.3578941741134386e+05 0.0000000000000000e+00 -1.3578941741134386e+05 1.2713409427204333e+07 0.0000000000000000e+00 0.0000000000000000e+00 0.0000000000000000e+00 0.0000000000000000e+00  9.4357640786257088e+06 5.7157618955830291e+07 0.0000000000000000e+00 5.7157618955830291e+07 -1.1567299599230382e+08 0.0000000000000000e+00 0.0000000000000000e+00 0.0000000000000000e+00 0.0000000000000000e+00  -4.8349995171991162e+07 1.8130121348940883e+07 0.0000000000000000e+00 1.8130121348940883e+07 -9.7943649231929109e+07 0.0000000000000000e+00 0.0000000000000000e+00 0.0000000000000000e+00 0.0000000000000000e+00  8.7657360400930583e+07 1.5075562047250807e+07 0.0000000000000000e+00 1.5075562047250807e+07 1.2334106934075367e+07 0.0000000000000000e+00 0.0000000000000000e+00 0.0000000000000000e+00 0.0000000000000000e+00  6.4961854398152989e+05 -4.2555992032592694e+04 0.0000000000000000e+00 -4.2555992032592694e+04 -2.0988948040628946e+08 0.0000000000000000e+00 0.0000000000000000e+00 0.0000000000000000e+00 0.0000000000000000e+00  -1.7566026566093709e+07 8.7669259785470515e+06 0.0000000000000000e+00 8.7669259785470515e+06 -1.0216763242807487e+08 0.0000000000000000e+00 0.0000000000000000e+00 0.0000000000000000e+00 0.0000000000000000e+00  -1.5484321244696903e+08 1.6390540616789632e+07 0.0000000000000000e+00 1.6390540616789632e+07 -9.7444016662767559e+07 0.0000000000000000e+00 0.0000000000000000e+00 0.0000000000000000e+00 0.0000000000000000e+00  -7.2565532232251735e+06 -1.1806449367974983e+06 0.0000000000000000e+00 -1.1806449367974983e+06 -1.7338317882646013e+07 0.0000000000000000e+00 0.0000000000000000e+00 0.0000000000000000e+00 0.0000000000000000e+00  1.4307630335981734e+06 1.3136782503539454e+07 0.0000000000000000e+00 1.3136782503539454e+07 -8.7030544559290260e+07 0.0000000000000000e+00 0.0000000000000000e+00 0.0000000000000000e+00 0.0000000000000000e+00  -6.8615720540755734e+07 1.8375538904003128e+07 0.0000000000000000e+00 1.8375538904003128e+07 -1.0458466080064368e+08 0.0000000000000000e+00 0.0000000000000000e+00 0.0000000000000000e+00 0.0000000000000000e+00  1.0312545802253100e+08 6.6865105728893327e+06 0.0000000000000000e+00 6.6865105728893327e+06 -6.6392065076320730e+06 0.0000000000000000e+00 0.0000000000000000e+00 0.0000000000000000e+00 0.0000000000000000e+00  -1.0798930322293751e+07 -5.0116937264207983e+05 0.0000000000000000e+00 -5.0116937264207983e+05 5.6871282150923470e+06 0.0000000000000000e+00 0.0000000000000000e+00 0.0000000000000000e+00 0.0000000000000000e+00  7.7280171024854546e+06 -4.3937988645355485e+05 0.0000000000000000e+00 -4.3937988645355485e+05 1.0889628608897602e+07 0.0000000000000000e+00 0.0000000000000000e+00 0.0000000000000000e+00 0.0000000000000000e+00  2.3148778672935218e+06 2.4658299696555775e+07 0.0000000000000000e+00 2.4658299696555775e+07 -1.4450042512689942e+08 0.0000000000000000e+00 0.00