<?xml version="1.0"?>
<VTKFile type="UnstructuredGrid"  version="0.1"  >
<UnstructuredGrid>
<Piece  NumberOfPoints="1826" NumberOfCells="3452">
<Points>
<DataArray  type="Float64"  NumberOfComponents="3"  format="ascii">0 0 0  0 2 0  1 2 0  1 0 0  0 1.5 0  0 0.5 0  0.5 1 0  0.03270156468211589 1.498929461614907 0  0.06526309623861858 1.495722430669976 0  0.0975451612174474 1.490392640159966 0  0.1294095228334242 1.482962913068929 0  0.1607197330395174 1.473465064615866 0  0.1913417166827912 1.461939766048435 0  0.2211443457134849 1.448436370468492 0  0.2500000006885261 1.433012701494699 0  0.2777851172638959 1.415734805647403 0  0.3043807153156688 1.396676669523079 0  0.3296729083861843 1.375919903006205 0  0.3535533914531431 1.353553389733404 0  0.3759199044829808 1.329672906702244 0  0.3966766707391871 1.304380713730806 0  0.4157348066966072 1.27778511569365 0  0.433012702319451 1.249999999260013 0  0.4484363711057253 1.221144344421304 0  0.4619397665153352 1.191341715555593 0  0.4734650649037118 1.160719732191551 0  0.4829629132698931 1.129409522083414 0  0.4903926402635492 1.097545160696701 0  0.4957224307066402 1.065263095960124 0  0.4989294616245774 1.032701564534581 0  0.4989294616162002 0.9672984353376084 0  0.4957224306699188 0.9347369037609494 0  0.4903926401578175 0.9024548387717499 0  0.482962913061636 0.8705904771393596 0  0.4734650646140292 0.8392802669550714 0  0.4619397660502575 0.8086582833216098 0  0.4484363705190297 0.7788556543889953 0  0.4330127015665935 0.7499999994359995 0  0.4157348057254738 0.722214882852946 0  0.3966766696006365 0.6956192847854065 0  0.3759199030982872 0.6703270917188153 0  0.3535533898676612 0.6464466086811137 0  0.3296729068539963 0.6240800956501023 0  0.304380713880217 0.6033233293754604 0  0.2777851159048961 0.5842651934445428 0  0.2499999993997783 0.5669872977612425 0  0.2211443445099805 0.5515636289380053 0  0.1913417156395864 0.5380602335194558 0  0.1607197321784864 0.5265349350918533 0  0.1294095221658038 0.5170370867521831 0  0.09754516071925461 0.509607359740937 0  0.06526309591935731 0.5042775692879928 0  0.0327015645246888 0.5010705383747742 0  0 1.533333333333333 0  0 1.566666666666666 0  0 1.6 0  0 1.633333333333333 0  0 1.666666666666666 0  0 1.7 0  0 1.733333333333333 0  0 1.766666666666666 0  0 1.8 0  0 1.833333333333333 0  0 1.866666666666666 0  0 1.9 0  0 1.933333333333333 0  0 1.966666666666667 0  0.0333333333332695 2 0  0.06666666666653284 2 0  0.09999999999981467 2 0  0.1333333333330856 2 0  0.1666666666663217 2 0  0.1999999999995579 2 0  0.2333333333327941 2 0  0.2666666666660302 2 0  0.2999999999992664 2 0  0.3333333333325026 2 0  0.3666666666657388 2 0  0.399999999998975 2 0  0.4333333333322111 2 0  0.4666666666654473 2 0  0.4999999999986943 2 0  0.5333333333321045 2 0  0.5666666666655257 2 0  0.5999999999989467 2 0  0.6333333333323679 2 0  0.6666666666657889 2 0  0.6999999999992101 2 0  0.7333333333326312 2 0  0.7666666666660523 2 0  0.7999999999994734 2 0  0.8333333333328945 2 0  0.8666666666663155 2 0  0.8999999999997367 2 0  0.9333333333331578 2 0  0.966666666666579 2 0  1 1.966666666666528 0  1 1.933333333333056 0  1 1.899999999999584 0  1 1.866666666666111 0  1 1.833333333332639 0  1 1.799999999999167 0  1 1.766666666665695 0  1 1.733333333332408 0  1 1.699999999999306 0  1 1.666666666666204 0  1 1.633333333333102 0  1 1.6 0  1 1.566666666666898 0  1 1.533333333333796 0  1 1.500000000000693 0  1 1.466666666667591 0  1 1.433333333334489 0  1 1.400000000001387 0  1 1.366666666668285 0  1 1.333333333335183 0  1 1.300000000002081 0  1 1.266666666668979 0  1 1.233333333335876 0  1 1.200000000002774 0  1 1.166666666669672 0  1 1.13333333333657 0  1 1.100000000003468 0  1 1.066666666670365 0  1 1.033333333337263 0  1 1.000000000004118 0  1 0.9666666666706891 0  1 0.9333333333372169 0  1 0.9000000000037447 0  1 0.8666666666702729 0  1 0.8333333333368007 0  1 0.8000000000033289 0  1 0.7666666666698567 0  1 0.7333333333363847 0  1 0.7000000000029127 0  1 0.6666666666694405 0  1 0.6333333333359688 0  1 0.6000000000024965 0  1 0.5666666666690245 0  1 0.5333333333355526 0  1 0.5000000000020806 0  1 0.4666666666686086 0  1 0.4333333333351364 0  1 0.4000000000016646 0  1 0.3666666666681924 0  1 0.3333333333347204 0  1 0.3000000000012484 0  1 0.2666666666677764 0  1 0.2333333333343044 0  1 0.2000000000008322 0  1 0.1666666666673602 0  1 0.1333333333338882 0  1 0.1000000000004162 0  1 0.06666666666694421 0  1 0.03333333333347221 0  0.9666666666665279 0 0  0.9333333333330557 0 0  0.8999999999995836 0 0  0.866666666666204 0 0  0.8333333333331019 0 0  0.7999999999999998 0 0  0.7666666666668978 0 0  0.7333333333337957 0 0  0.7000000000006936 0 0  0.6666666666675913 0 0  0.6333333333344893 0 0  0.6000000000013871 0 0  0.5666666666682849 0 0  0.5333333333351827 0 0  0.5000000000020588 0 0  0.4666666666686085 0 0  0.4333333333351365 0 0  0.4000000000016645 0 0  0.3666666666681924 0 0  0.3333333333347203 0 0  0.3000000000012483 0 0  0.2666666666677763 0 0  0.2333333333343043 0 0  0.2000000000008323 0 0  0.1666666666673602 0 0  0.1333333333338882 0 0  0.1000000000004161 0 0  0.0666666666669441 0 0  0.0333333333334721 0 0  0 0.03333333333326642 0  0 0.06666666666654278 0  0 0.09999999999977896 0  0 0.1333333333330151 0  0 0.1666666666662513 0  0 0.1999999999994875 0  0 0.2333333333327237 0  0 0.2666666666660523 0  0 0.2999999999994734 0  0 0.3333333333328944 0  0 0.3666666666663156 0  0 0.3999999999997367 0  0 0.4333333333331578 0  0 0.4666666666665789 0  0.9720078389024227 0.3839053532097723 0  0.617714119735604 1.970110789132251 0  0.360436615368792 0.6138605770588632 0  0.3861391408373002 1.360436568830364 0  0.6158539563312924 0.03000762759539893 0  0.9717935515957234 1.616666626512302 0  0.4503349544302358 1.969648275004308 0  0.971882106318013 0.5513257414571178 0  0.4832230822237064 0.02880256548533452 0  0.9680550601811584 1.485415443148804 0  0.2771035102119069 1.448185256529393 0  0.4458774496995793 0.7223602678824738 0  0.4533241458832291 1.281448389160051 0  0.2781792205668452 0.5509616878268755 0  0.9717452944966031 1.350906751383709 0  0.3454106315521234 0.03238020337054486 0  0.3186117014980386 1.966955099533295 0  0.9711347960771812 0.6833536721060691 0  0.5036698364244122 1.152746013442924 0  0.1860122617942576 0.5084274565062483 0  0.4937463876730742 0.8149807178595522 0  0.1872152389157827 1.494039785070142 0  0.5210700744430521 0.9127634476549851 0  0.524933634865593 1.052632346936693 0  0.9693717560540478 1.221014467412183 0  0.9687206903403258 0.8162768106783722 0  0.9711312122378168 1.749996427585009 0  0.970500628478481 0.254139416233656 0  0.02916719237315252 0.2492648760911981 0  0.9722863462155804 0.9844327334615476 0  0.02786892478775306 1.744200008206097 0  0.7488456770242349 0.02820125386544082 0  0.7523277710648727 1.973426192888972 0  0.2140787413778554 0.02877618616151802 0  0.9711364571459248 1.083355903781838 0  0.2169848950239913 1.971579900016079 0  0.02881023588754362 0.3499334554987744 0  0.02791676764214552 1.651094984405274 0  0.8499999999996527 0.028867513459281 0  0.9711287806663959 1.849988594518703 0  0.02851037092184827 1.85093369324506 0  0.02657828146940976 0.150643934033407 0  0.8499999999996051 1.971132486540443 0  0.9722529173995872 0.1500005893012214 0  0.4068191891483002 0.6636920992269496 0  0.3350026989549613 1.408201967981129 0  0.1199116737774518 0.4857268767584789 0  0.1204187930047024 1.513873875942757 0  0.4805695625410146 1.217138773642566 0  0.5277851164938279 0.9827221042345209 0  0.119837550128076 1.973629410017125 0  0.1166666666671521 0.02886751345960137 0  0.9682521974352188 0.9108673130395039 0  0.9706868372895046 0.7493756625672435 0  0.9711467530947417 1.149989386991826 0  0.3826982123876945 1.974254620796579 0  0.9698162189036239 1.283001313879302 0  0.4166627969981543 0.02746179814651353 0  0.2872631251309998 0.02679824962056108 0  0.5168380265331751 1.97244577901132 0  0.9711324865403987 0.6166666666692325 0  0.9725417101231546 0.4821867878748348 0  0.9698923354474316 0.3157971629507325 0  0.9713419917306593 1.416354851752134 0  0.9724305780841475 1.551562542796151 0  0.6838219518835558 0.02764660321906097 0  0.5553440936651212 0.02781033190148053 0  0.9726632206974235 1.683336737424733 0  0.6829090121447372 1.970000184065786 0  0.9175918875372968 0.02597956753713117 0  0.9711325218105137 1.916666459441907 0  0.02886751345955729 0.4166666666664472 0  0.02677164657045288 1.582937909465663 0  0.02886751345948118 1.916666666666664 0  0.02865690373672858 0.08801859303668916 0  0.9195595366229911 1.970122770999841 0  0.9720021612961098 0.0833336963013817 0  0.05115120872995726 0.4690323303711653 0  0.05269500611065072 1.528787610295459 0  0.05178002557939538 1.966395686274313 0  0.05140458396007705 0.02673655882539323 0  0.3616409345951798 1.384817800346419 0  0.3939272572701683 1.392574538781407 0  0.418207575634964 1.368006386833963 0  0.4268527929559288 1.399757575186024 0  0.4493566380802698 1.375855723426926 0  0.4588451293568834 1.407100707228751 0  0.4812514503637211 1.383227559008882 0  0.4907967045583129 1.414610773974569 0  0.5132410737626676 1.390651514070399 0  0.5227761079756692 1.422127024422278 0  0.5001342124208662 1.446051934255468 0  0.5323120866844422 1.453586540944832 0  0.5098471362349171 1.477612267480779 0  0.5419046956524318 1.485091594958289 0  0.5192034712687923 1.509197236374241 0  0.5514545151622942 1.516634039703928 0  0.5287159014415425 1.540760833069334 0  0.5610288756892836 1.548195589099703 0  0.5452445998431892 1.398124619988478 0  0.5384598782671842 1.572283853892179 0  0.5706498099969673 1.579772058958165 0  0.5835804631939807 1.52410372335701 0  0.5480511297529302 1.603845755198654 0  0.5801806458775207 1.611374409273168 0  0.5159060176415489 1.596362816749754 0  0.5255054924914806 1.627971368508004 0  0.4933296706540445 1.620464464316733 0  0.5028842050597351 1.652055251553636 0  0.47072692463918 1.644567885612958 0  0.4802695885647741 1.676160325444355 0  0.
[...]
<PointData  Vectors="u"> 
<DataArray  type="Float64"  Name="u"  NumberOfComponents="3" format="ascii">0.0000000000000000e+00 0.0000000000000000e+00 0.0000000000000000e+00  0.0000000000000000e+00 -2.1754237964674498e-03 0.0000000000000000e+00  -1.5058893182569885e-04 -1.0674344925659552e-03 0.0000000000000000e+00  1.8141548349333387e-04 0.0000000000000000e+00 0.0000000000000000e+00  0.0000000000000000e+00 -2.0998851749827207e-03 0.0000000000000000e+00  0.0000000000000000e+00 1.0600064219894354e-06 0.0000000000000000e+00  5.7455224417396738e-04 -7.7052688907234060e-04 0.0000000000000000e+00  3.8461312051719706e-05 -2.0944943874531686e-03 0.0000000000000000e+00  7.5258762215234766e-05 -2.0829762077041766e-03 0.0000000000000000e+00  1.1268937861989500e-04 -2.0629026729461143e-03 0.0000000000000000e+00  1.4990977428699619e-04 -2.0354747588119944e-03 0.0000000000000000e+00  1.8658044919940949e-04 -2.0012733045010776e-03 0.0000000000000000e+00  2.2266508935992282e-04 -1.9608198477107440e-03 0.0000000000000000e+00  2.5785728773292864e-04 -1.9148666257904328e-03 0.0000000000000000e+00  2.9259107703535117e-04 -1.8639690013877207e-03 0.0000000000000000e+00  3.2672531513522064e-04 -1.8083870540943512e-03 0.0000000000000000e+00  3.5948625710866840e-04 -1.7496097658392842e-03 0.0000000000000000e+00  3.9148608163838775e-04 -1.6871831218641103e-03 0.0000000000000000e+00  4.2192519004970386e-04 -1.6224486294953030e-03 0.0000000000000000e+00  4.5071241624456657e-04 -1.5555067710891965e-03 0.0000000000000000e+00  4.7784911186540656e-04 -1.4866662892001744e-03 0.0000000000000000e+00  5.0307382589690559e-04 -1.4164774640701384e-03 0.0000000000000000e+00  5.2568547859760460e-04 -1.3461460051803218e-03 0.0000000000000000e+00  5.4561185281407553e-04 -1.2735852270522330e-03 0.0000000000000000e+00  5.6215177276842433e-04 -1.2008453928729400e-03 0.0000000000000000e+00  5.7440354470050532e-04 -1.1278786774787078e-03 0.0000000000000000e+00  5.8338634772023648e-04 -1.0548438134287844e-03 0.0000000000000000e+00  5.8809634917729838e-04 -9.8235101262751233e-04 0.0000000000000000e+00  5.8790911576060484e-04 -9.1066247620906926e-04 0.0000000000000000e+00  5.8367314180458537e-04 -8.3986595666591399e-04 0.0000000000000000e+00  5.6184871607316430e-04 -7.0293239881383902e-04 0.0000000000000000e+00  5.4453909641578510e-04 -6.3739308353018200e-04 0.0000000000000000e+00  5.2365282544370535e-04 -5.7422004533439364e-04 0.0000000000000000e+00  4.9974086340804854e-04 -5.1315807220425006e-04 0.0000000000000000e+00  4.7305568590001859e-04 -4.5524493938828780e-04 0.0000000000000000e+00  4.4473396457094655e-04 -4.0078240092806427e-04 0.0000000000000000e+00  4.1490357652118685e-04 -3.4986324157967820e-04 0.0000000000000000e+00  3.8337502069029044e-04 -3.0188607201992108e-04 0.0000000000000000e+00  3.5238332691007383e-04 -2.5822870723763070e-04 0.0000000000000000e+00  3.2125860483680720e-04 -2.1824028315081239e-04 0.0000000000000000e+00  2.9038480411121476e-04 -1.8209001269871948e-04 0.0000000000000000e+00  2.6045987516255391e-04 -1.4982736204224661e-04 0.0000000000000000e+00  2.3175363939718636e-04 -1.2141757533565427e-04 0.0000000000000000e+00  2.0424660072010454e-04 -9.6522794949631318e-05 0.0000000000000000e+00  1.7823435370880472e-04 -7.5065401510176602e-05 0.0000000000000000e+00  1.5357531849938510e-04 -5.6817953716934150e-05 0.0000000000000000e+00  1.3049915363285385e-04 -4.1694599011299727e-05 0.0000000000000000e+00  1.0863315355983839e-04 -2.9304004806611387e-05 0.0000000000000000e+00  8.7928235384085286e-05 -1.9489165730878574e-05 0.0000000000000000e+00  6.8988512487271923e-05 -1.1666231779379226e-05 0.0000000000000000e+00  5.0695333416533154e-05 -6.0053033201973334e-06 0.0000000000000000e+00  3.3461812636349892e-05 -2.1487110424865161e-06 0.0000000000000000e+00  1.6987236933994178e-05 -2.0671665221809901e-07 0.0000000000000000e+00  0.0000000000000000e+00 -2.1120264884910991e-03 0.0000000000000000e+00  0.0000000000000000e+00 -2.1208893457332839e-03 0.0000000000000000e+00  0.0000000000000000e+00 -2.1268294357876857e-03 0.0000000000000000e+00  0.0000000000000000e+00 -2.1313641420525140e-03 0.0000000000000000e+00  0.0000000000000000e+00 -2.1355258760452299e-03 0.0000000000000000e+00  0.0000000000000000e+00 -2.1394269379455336e-03 0.0000000000000000e+00  0.0000000000000000e+00 -2.1437287331678334e-03 0.0000000000000000e+00  0.0000000000000000e+00 -2.1485543771486851e-03 0.0000000000000000e+00  0.0000000000000000e+00 -2.1537905386628904e-03 0.0000000000000000e+00  0.0000000000000000e+00 -2.1581696167938449e-03 0.0000000000000000e+00  0.0000000000000000e+00 -2.1630453591617955e-03 0.0000000000000000e+00  0.0000000000000000e+00 -2.1675777457320433e-03 0.0000000000000000e+00  0.0000000000000000e+00 -2.1713890184493971e-03 0.0000000000000000e+00  0.0000000000000000e+00 -2.1740195512795729e-03 0.0000000000000000e+00  -2.7272812354403315e-05 -2.1721170363148985e-03 0.0000000000000000e+00  -5.3205960130121421e-05 -2.1639931185368660e-03 0.0000000000000000e+00  -7.8600394925388398e-05 -2.1502418389771540e-03 0.0000000000000000e+00  -1.0293667831517789e-04 -2.1313976610388440e-03 0.0000000000000000e+00  -1.2580596078795770e-04 -2.1077891022189513e-03 0.0000000000000000e+00  -1.4692394071669012e-04 -2.0792267411224238e-03 0.0000000000000000e+00  -1.6565781060731477e-04 -2.0475705818925180e-03 0.0000000000000000e+00  -1.8229746630321717e-04 -2.0119050935855746e-03 0.0000000000000000e+00  -1.9650525995928568e-04 -1.9732549781786121e-03 0.0000000000000000e+00  -2.0798627408407776e-04 -1.9325154073527306e-03 0.0000000000000000e+00  -2.1722389298251302e-04 -1.8895183008320218e-03 0.0000000000000000e+00  -2.2419788347433371e-04 -1.8449342476399922e-03 0.0000000000000000e+00  -2.2888742380048802e-04 -1.7999750227082978e-03 0.0000000000000000e+00  -2.3157652549604243e-04 -1.7539781633771037e-03 0.0000000000000000e+00  -2.3242224130223555e-04 -1.7078521339352990e-03 0.0000000000000000e+00  -2.3159812309252211e-04 -1.6617217357979669e-03 0.0000000000000000e+00  -2.2933447168110738e-04 -1.6158194034882785e-03 0.0000000000000000e+00  -2.2577772999132927e-04 -1.5703568442285479e-03 0.0000000000000000e+00  -2.2124250921815421e-04 -1.5256288229672629e-03 0.0000000000000000e+00  -2.1584530516439047e-04 -1.4812778200189135e-03 0.0000000000000000e+00  -2.0992225465216687e-04 -1.4378245338075987e-03 0.0000000000000000e+00  -2.0357079650234377e-04 -1.3950083898614837e-03 0.0000000000000000e+00  -1.9693040278938895e-04 -1.3527860146505429e-03 0.0000000000000000e+00  -1.9010924071463975e-04 -1.3111119743695692e-03 0.0000000000000000e+00  -1.8330443972665341e-04 -1.2699592901492967e-03 0.0000000000000000e+00  -1.7654884483276516e-04 -1.2291699746159027e-03 0.0000000000000000e+00  -1.6990379230135381e-04 -1.1886324579069142e-03 0.0000000000000000e+00  -1.6336934156637578e-04 -1.1482308147021637e-03 0.0000000000000000e+00  -1.5694421037695127e-04 -1.1078595962188446e-03 0.0000000000000000e+00  -1.1011717178078975e-04 -1.0529569006100330e-03 0.0000000000000000e+00  -6.9595919537607964e-05 -1.0385447208181423e-03 0.0000000000000000e+00  -2.9102871358911962e-05 -1.0242344776374718e-03 0.0000000000000000e+00  1.1299135245143280e-05 -1.0100362885927736e-03 0.0000000000000000e+00  5.1539799342407907e-05 -9.9594091143525416e-04 0.0000000000000000e+00  9.1564179946002305e-05 -9.8193867292143485e-04 0.0000000000000000e+00  1.3134337550891825e-04 -9.6802038125106684e-04 0.0000000000000000e+00  1.7086513593480857e-04 -9.5419358497735810e-04 0.0000000000000000e+00  2.1009143286764652e-04 -9.4050071681009157e-04 0.0000000000000000e+00  2.4898683486864696e-04 -9.2697573340523901e-04 0.0000000000000000e+00  2.8760342683799636e-04 -9.1371431945567528e-04 0.0000000000000000e+00  3.2578442513805559e-04 -9.0076380048826959e-04 0.0000000000000000e+00  3.6337071687609040e-04 -8.8822569005857525e-04 0.0000000000000000e+00  4.0039034866061284e-04 -8.7620024906204361e-04 0.0000000000000000e+00  4.3680093586729685e-04 -8.6481500769031172e-04 0.0000000000000000e+00  4.7211471511314143e-04 -8.5408997958465616e-04 0.0000000000000000e+00  5.0635345637740892e-04 -8.4427664422384932e-04 0.0000000000000000e+00  5.3910909182744633e-04 -8.3533788691169222e-04 0.0000000000000000e+00  5.7001872348949774e-04 -8.2732605764041574e-04 0.0000000000000000e+00  5.9896719614327355e-04 -8.2031826336706319e-04 0.0000000000000000e+00  6.2587839698511260e-04 -8.1419975047384349e-04 0.0000000000000000e+00  6.4983282663494239e-04 -8.0896171874578703e-04 0.0000000000000000e+00  6.7100078073725517e-04 -8.0506438767860295e-04 0.0000000000000000e+00  6.8881301555158241e-04 -8.0127226292549042e-04 0.0000000000000000e+00  7.0304168516268956e-04 -7.9811923302345223e-04 0.0000000000000000e+00  7.1355975098068812e-04 -7.9532534758135329e-04 0.0000000000000000e+00  7.2017111515966558e-04 -7.9258101727543899e-04 0.0000000000000000e+00  7.2285529514358839e-04 -7.8960855627942597e-04 0.0000000000000000e+00  7.2164031402940346e-04 -7.8614275029052153e-04 0.0000000000000000e+00  7.1634984947540573e-04 -7.8202409106627440e-04 0.0000000000000000e+00  7.0724450231652225e-04 -7.7685755488501808e-04 0.0000000000000000e+00  6.9471193048260577e-04 -7.7029658381570516e-04 0.0000000000000000e+00  6.7879771840682781e-04 -7.6197197279095235e-04 0.0000000000000000e+00  6.5976127138243088e-04 -7.5261615467971772e-04 0.0000000000000000e+00  6.3833145890353118e-04 -7.4111250913387063e-04 0.0000000000000000e+00  6.1481255231474045e-04 -7.2743074130342613e-04 0.0000000000000000e+00  5.8932265065495611e-04 -7.1178258416790025e-04 0.0000000000000000e+00  5.6279954798728131e-04 -6.9400508119586072e-04 0.0000000000000000e+00  5.3538911335984131e-04 -6.7426860133202964e-04 0.0000000000000000e+00  5.0734293919545614e-04 -6.5257088059567341e-04 0.0000000000000000e+00  4.7924519630697241e-04 -6.2896120411518183e-04 0.0000000000000000e+00  4.5146135243053084e-04 -6.0358828720113793e-04 0.0000000000000000e+00  4.2430103774587476e-04 -5.7662754488495423e-04 0.0000000000000000e+00  3.9781711869933212e-04 -5.4822323866972192e-04 0.0000000000000000e+00  3.7248412727431220e-04 -5.1854619273467148e-04 0.0000000000000000e+00  3.4831462571392909e-04 -4.8763070213671955e-04 0.0000000000000000e+00  3.2564508067958308e-04 -4.5576773552663048e-04 0.0000000000000000e+00  3.0451440037923566e-04 -4.2308705406894740e-04 0.0000000000000000e+00  2.8491316629609265e-04 -3.8965066906427323e-04 0.0000000000000000e+00  2.6682995532258629e-04 -3.5562320100431574e-04 0.0000000000000000e+00  2.5061755955924596e-04 -3.2118465093034171e-04 0.0000000000000000e+00  2.3598209048660343e-04 -2.8604308677078683e-04 0.0000000000000000e+00  2.2317051235458811e-04 -2.5090753534862803e-04 0.0000000000000000e+00  2.1215497296635691e-04 -2.1545821798415980e-04 0.0000000000000000e+00  2.0273345946050819e-04 -1.7976007741384679e-04 0.0000000000000000e+00  1.9505236678047825e-04 -1.4395919086731765e-04 0.0000000000000000e+00  1.8914186657740167e-04 -1.0807996929926790e-04 0.0000000000000000e+00  1.8492163542685732e-04 -7.2070842652160864e-05 0.0000000000000000e+00  1.8243882427904011e-04 -3.6149264523223389e-05 0.0000000000000000e+00  1.6614606254969296e-04 0.0000000000000000e+00 0.0000000000000000e+00  1.5137196774985657e-04 0.0000000000000000e+00 0.0000000000000000e+00  1.3725015668871035e-04 0.0000000000000000e+00 0.0000000000000000e+00  1.2377366644723974e-04 0.0000000000000000e+00 0.0000000000000000e+00  1.1093899253330680e-04 0.0000000000000000e+00 0.0000000000000000e+00  9.8514346898477770e-05 0.0000000000000000e+00 0.0000000000000000e+00  8.6885995020690360e-05 0.0000000000000000e+00 0.0000000000000000e+00  7.5669718225753336e-05 0.0000000000000000e+00 0.0000000000000000e+00  6.5024394714888696e-05 0.0000000000000000e+00 0.0000000000000000e+00  5.4967189807165547e-05 0.0000000000000000e+00 0.0000000000000000e+00  4.5513831457490453e-05 0.0000000000000000e+00 0.0000000000000000e+00  3.6725364597579929e-05 0.0000000000000000e+00 0.0000000000000000e+00  2.8629539692576853e-05 0.0000000000000000e+00 0.0000000000000000e+00  2.1083601605536063e-05 0.0000000000000000e+00 0.0000000000000000e+00  1.4276021033649557e-05 0.0000000000000000e+00 0.0000000000000000e+00  8.3891560167072697e-06 0.0000000000000000e+00 0.0000000000000000e+00  3.2853452834837475e-06 0.0000000000000000e+00 0.0000000000000000e+00  -1.0281447853361138e-06 0.0000000000000000e+00 0.0000000000000000e+00  -4.5100425915340738e-06 0.0000000000000000e+00 0.0000000000000000e+00  -7.0942080805976583e-06 0.0000000000000000e+00 0.0000000000000000e+00  -8.9612532593324351e-06 0.0000000000000000e+00 0.0000000000000000e+00  -1.0191265239530116e-05 0.0000000000000000e+00 0.0000000000000000e+00  -1.0644725365557023e-05 0.0000000000000000e+00 0.0000000000000000e+00  -1.0355741231200520e-05 0.0000000000000000e+00 0.0000000000000000e+00  -9.5183647252637449e-06 0.0000000000000000e+00 0.0000000000000000e+00  -8.2208703605774118e-06 0.0000000000000000e+00 0.0000000000000000e+00  -6.5246673534668702e-06 0.0000000000000000e+00 0.0000000000000000e+00  -4.5301250714486082e-06 0.0000000000000000e+00 0.0000000000000000e+00  -2.3137689079312756e-06 0.0000000000000000e+00 0.0000000000000000e+00  0.0000000000000000e+00 1.8199814105027501e-06 0.0000000000000000e+00  0.0000000000000000e+00 3.6185737109107562e-06 0.0000000000000000e+00  0.0000000000000000e+00 5.3869785341273062e-06 0.0000000000000000e+00  0.0000000000000000e+00 7.1133968444181212e-06 0.0000000000000000e+00  0.0000000000000000e+00 8.7946794291985061e-06 0.0000000000000000e+00  0.0000000000000000e+00 1.0367446476755019e-05 0.0000000000000000e+00  0.0000000000000000e+00 1.1781826649494412e-05 0.0000000000000000e+00  0.0000000000000000e+00 1.2965046256534897e-05 0.0000000000000000e+00  0.0000000000000000e+00 1.3864116194866769e-05 0.0000000000000000e+00  0.0000000000000000e+00 1.4348767890969192e-05 0.0000000000000000e+00  0.0000000000000000e+00 1.4156483090703491e-05 0.0000000000000000e+00  0.0000000000000000e+00 1.3045017542817423e-05 0.0000000000000000e+00  0.0000000000000000e+00 1.0795774148870928e-05 0.0000000000000000e+00  0.0000000000000000e+00 6.7331280055150255e-06 0.0000000000000000e+00  2.8273990030206148e-04 -3.9110175109610332e-04 0.0000000000000000e+00  -1.8419072600511029e-04 -1.5342446532018547e-03 0.0000000000000000e+00  2.2255023361456510e-04 -1.5524083382241764e-04 0.0000000000000000e+00  4.0972242243007042e-04 -1.5434918924116228e-03 0.0000000000000000e+00  4.1312869463187015e-05 -1.7107161686783636e-05 0.0000000000000000e+00  3.0184515437637808e-04 -9.3916423331134760e-04 0.0000000000000000e+00  -1.9074864371997958e-04 -1.7667516459702068e-03 0.0000000000000000e+00  4.0165386087250612e-04 -5.4266729890232893e-04 0.0000000000000000e+00  1.1681981243114986e-05 -1.1196800450768613e-05 0.0000000000000000e+00  4.4765717727128913e-04 -8.9311035060410761e-04 0.0000000000000000e+00  2.6855123377536068e-04 -1.8138872436357224e-03 0.0000000000000000e+00  3.5550124527834514e-04 -3.1081748806572696e-04 0.0000000000000000e+00  5.0418904022602341e-04 -1.3274400903319566e-03 0.0000000000000000e+00  1.4413518771293587e-04 -7.3902268406828405e-05 0.0000000000000000e+00  5.8104212299174964e-04 -8.4764355751844713e-04 0.0000000000000000e+00  -5.9638401556186030e-06 -6.5384590246950580e-06 0.0000000000000000e+00  -1.6536124954433880e-04 -1.9437888900132204e-03 0.0000000000000000e+00  5.1309500344563709e-04 -6.4120627133055531e-04 0.0000000000000000e+00  5.9314119945045685e-04 -1.0646978771542107e-03 0.0000000000000000e+00  8.5696402383532677e-05 -2.4391953551138587e-05 0.0000000000000000e+00  4.6093368946049771e-04 -4.6375671537658372e-04 0.0000000000000000e+00  1.6789598120766838e-04 -1.9723553286917074e-03 0.0000000000000000e+00  5.4939740319179633e-04 -6.2827661878350457e-04 0.0000000000000000e+00  6.0902616197604773e-04 -8.7209328658527830e-04 0.0000000000000000e+00  6.7603558856279254e-04 -8.1948373230975393e-04 0.0000000000000000e+00  6.2066505845463529e-04 -7.1419716344367284e-04 0.0000000000000000e+00  1.4583420233226478e-04 -9.9521626014596461e-04 0.0000000000000000e+00  2.1752625604831220e-04 -2.6170200871233190e-04 0.0000000000000000e+00  3.9077813825693752e-07 1.1894214874493241e-05 0.0000000000000000e+00  7.1017846776742256e-04 -7.7328632673528486e-04 0.0000000000000000e+00  -1.3451661544458295e-06 -2.1428166186896118e-03 0.0000000000000000e+00  8.1343314201701383e-05 -2.0849903928285460e-05 0.0000000000000000e+00  -1.6633560609372568e-04 -1.3592719751294327e-03 0.0000000000000000e+00  -1.0343653800357461e-05 -1.4561057862800312e-06 0.0000000000000000e+00  7.2031405766335391e-04 -7.9379635746821718e-04 0.0000000000000000e+00  -1.3146923163932531e-04 -2.0601700321932876e-03 0.0000000000000000e+00  3.5351577247564470e-06 1.3686860095760437e-05 0.0000000000000000e+00  5.0117686243597143e-06 -2.1306904152291386e-03 0.0000000000000000e+00  1.1790871636330527e-04 -2.5099242643058140e-05 0.0000000000000000e+00  2.6074293271548740e-05 -1.0377334371124394e-03 0.0000000000000000e+00  -8.1356579627870161e-06 -2.1584835688862381e-03 0.0000000000000000e+00  -1.1380377800289783e-06 7.7469115509015235e-06 0.0000000000000000e+00  -1.4454459458044977e-04 -1.2368608700932637e-03 0.0000000000000000e+00  1.8585977829116849e-04 -1.5560843861723683e-04 0.0000000000000000e+00  2.8425474371162604e-04 -2.2623457278530653e-04 0.0000000000000000e+00  3.3893237210170238e-04 -1.6817822051521940e-03 0.0000000000000000e+00  5.0662479805597573e-05 -5.4112408510175565e-06 0.0000000000000000e+00  1.0457860708984226e-04 -2.0526488094042136e-03 0.0000000000000000e+00  5.5819092253358736e-04 -1.1973258352633725e-03 0.0000000000000000e+00  5.9040694107219264e-04 -7.4731398436650280e-04 0.0000000000000000e+00  -7.9414239759755922e-05 -2.1381658048393115e-03 0.0000000000000000e+00  -7.3100739216437351e-06 6.3832448473238797e-07 0.0000000000000000e+00  6.8041561129914831e-04 -7.5127913777066747e-04 0.0000000000000000e+00  5.6863282956451844e-04 -6.8136683563412763e-04 0.0000000000000000e+00  7.0717840705019773e-04 -8.0563120225216577e-04 0.0000000000000000e+00  -1.8841207522345566e-04 -1.8614404722388130e-03 0.0000000000000000e+00  6.3604410132052098e-04 -8.3242617272962221e-04 0.0000000000000000e+00  1.3853149413296415e-06 -8.1448910049520707e-06 0.0000000000000000e+00  -9.3867347510862244e-06 -3.4838903265088073e-06 0.0000000000000000e+00  -1.9541589062019275e-04 -1.6744986327071590e-03 0.0000000000000000e+00  4.5567748274177232e-04 -5.9396414965741070e-04 0.0000000000000000e+00  3.4836407932344575e-04 -4.8321394218433665e-04 0.0000000000000000e+00  2.4462742307198860e-04 -3.2326070581153993e-04 0.0000000000000000e+00  5.1959490262172168e-04 -8.6692217308731217e-04 0.0000000000000000e+00  3.7571782936882765e-04 -9.1286462860218809e-04 0.0000000000000000e+00  6.0580991480458572e-05 -1.8148636121803148e-05 0.0000000000000000e+00  2.6332888306356269e-05 -1.3558594901540311e-05 0.0000000000000000e+00  2.2463922948855896e-04 -9.6544872489129384e-04 0.0000000000000000e+00  -1.7440183462050449e-04 -1.4472111166817646e-03 0.0000000000000000e+00  1.4512554820018622e-04 -2.4969235028222925e-05 0.0000000000000000e+00  -5.4790364190818218e-05 -1.0663453413132004e-03 0.0000000000000000e+00  7.1312249242319437e-06 1.1484307154261790e-05 0.0000000000000000e+00  1.1933662080679302e-05 -2.1212191811926418e-03 0.0000000000000000e+00  -1.3558243147991778e-05 -2.1674077764630775e-03 0.0000000000000000e+00  -1.7459708965689243e-06 4.5903742528347013e-06 0.0000000000000000e+00  -1.2972269424469968e-04 -1.1518871035528016e-03 0.0000000000000000e+00  1.7381875371868068e-04 -8.6634254479412462e-05 0.0000000000000000e+00  2.0045733420381270e-05 5.0038851034174182e-06 0.0000000000000000e+00  4.3103674582844415e-05 -2.1009074272255830e-03 0.0000000000000000e+00  -3.3770496549360742e-05 -2.1672737694694278e-03 0.0000000000000000e+00  -3.4984691189836713e-06 1.2846004057652503e-06 0.0000000000000000e+00  3.7509328043930400e-04 -1.6125621764979622e-03 0.0000000000000000e+00  3.67