<?xml version="1.0"?>
<VTKFile type="UnstructuredGrid"  version="0.1"  >
<UnstructuredGrid>
<Piece  NumberOfPoints="7110" NumberOfCells="13978">
<Points>
<DataArray  type="Float64"  NumberOfComponents="3"  format="ascii">0 0 0  0 1 0  1 1 0  1 0 0  0.5 0.7 0  0.7 0.5 0  0.5 0.3 0  0.3 0.5 0  0 0.01666666666663528 0  0 0.0333333333332695 0  0 0.04999999999989966 0  0 0.06666666666653284 0  0 0.08333333333317343 0  0 0.09999999999981467 0  0 0.1166666666664559 0  0 0.1333333333330856 0  0 0.1499999999997036 0  0 0.1666666666663217 0  0 0.1833333333329398 0  0 0.1999999999995579 0  0 0.216666666666176 0  0 0.2333333333327941 0  0 0.2499999999994122 0  0 0.2666666666660302 0  0 0.2833333333326484 0  0 0.2999999999992664 0  0 0.3166666666658845 0  0 0.3333333333325026 0  0 0.3499999999991207 0  0 0.3666666666657388 0  0 0.3833333333323569 0  0 0.399999999998975 0  0 0.416666666665593 0  0 0.4333333333322111 0  0 0.4499999999988292 0  0 0.4666666666654473 0  0 0.4833333333320654 0  0 0.4999999999986943 0  0 0.5166666666653941 0  0 0.5333333333321045 0  0 0.5499999999988152 0  0 0.5666666666655257 0  0 0.5833333333322362 0  0 0.5999999999989467 0  0 0.6166666666656574 0  0 0.6333333333323679 0  0 0.6499999999990784 0  0 0.6666666666657889 0  0 0.6833333333324995 0  0 0.6999999999992101 0  0 0.7166666666659206 0  0 0.7333333333326312 0  0 0.7499999999993416 0  0 0.7666666666660523 0  0 0.7833333333327628 0  0 0.7999999999994734 0  0 0.8166666666661839 0  0 0.8333333333328945 0  0 0.8499999999996051 0  0 0.8666666666663155 0  0 0.8833333333330261 0  0 0.8999999999997367 0  0 0.9166666666664472 0  0 0.9333333333331578 0  0 0.9499999999998683 0  0 0.966666666666579 0  0 0.9833333333332894 0  0.01666666666663528 1 0  0.0333333333332695 1 0  0.04999999999989966 1 0  0.06666666666653284 1 0  0.08333333333317343 1 0  0.09999999999981467 1 0  0.1166666666664559 1 0  0.1333333333330856 1 0  0.1499999999997036 1 0  0.1666666666663217 1 0  0.1833333333329398 1 0  0.1999999999995579 1 0  0.216666666666176 1 0  0.2333333333327941 1 0  0.2499999999994122 1 0  0.2666666666660302 1 0  0.2833333333326484 1 0  0.2999999999992664 1 0  0.3166666666658845 1 0  0.3333333333325026 1 0  0.3499999999991207 1 0  0.3666666666657388 1 0  0.3833333333323569 1 0  0.399999999998975 1 0  0.416666666665593 1 0  0.4333333333322111 1 0  0.4499999999988292 1 0  0.4666666666654473 1 0  0.4833333333320654 1 0  0.4999999999986943 1 0  0.5166666666653941 1 0  0.5333333333321045 1 0  0.5499999999988152 1 0  0.5666666666655257 1 0  0.5833333333322362 1 0  0.5999999999989467 1 0  0.6166666666656574 1 0  0.6333333333323679 1 0  0.6499999999990784 1 0  0.6666666666657889 1 0  0.6833333333324995 1 0  0.6999999999992101 1 0  0.7166666666659206 1 0  0.7333333333326312 1 0  0.7499999999993416 1 0  0.7666666666660523 1 0  0.7833333333327628 1 0  0.7999999999994734 1 0  0.8166666666661839 1 0  0.8333333333328945 1 0  0.8499999999996051 1 0  0.8666666666663155 1 0  0.8833333333330261 1 0  0.8999999999997367 1 0  0.9166666666664472 1 0  0.9333333333331578 1 0  0.9499999999998683 1 0  0.966666666666579 1 0  0.9833333333332894 1 0  1 0.9833333333332639 0  1 0.9666666666665279 0  1 0.9499999999997918 0  1 0.9333333333330557 0  1 0.9166666666663196 0  1 0.8999999999995836 0  1 0.8833333333328475 0  1 0.866666666666204 0  1 0.8499999999996529 0  1 0.8333333333331019 0  1 0.8166666666665509 0  1 0.7999999999999998 0  1 0.7833333333334488 0  1 0.7666666666668978 0  1 0.7500000000003467 0  1 0.7333333333337957 0  1 0.7166666666672447 0  1 0.7000000000006936 0  1 0.6833333333341425 0  1 0.6666666666675913 0  1 0.6500000000010403 0  1 0.6333333333344893 0  1 0.6166666666679381 0  1 0.6000000000013871 0  1 0.5833333333348359 0  1 0.5666666666682849 0  1 0.5500000000017338 0  1 0.5333333333351827 0  1 0.5166666666686317 0  1 0.5000000000020588 0  1 0.4833333333353446 0  1 0.4666666666686085 0  1 0.4500000000018723 0  1 0.4333333333351365 0  1 0.4166666666684004 0  1 0.4000000000016645 0  1 0.3833333333349284 0  1 0.3666666666681924 0  1 0.3500000000014564 0  1 0.3333333333347203 0  1 0.3166666666679844 0  1 0.3000000000012483 0  1 0.2833333333345123 0  1 0.2666666666677763 0  1 0.2500000000010403 0  1 0.2333333333343043 0  1 0.2166666666675682 0  1 0.2000000000008323 0  1 0.1833333333340962 0  1 0.1666666666673602 0  1 0.1500000000006242 0  1 0.1333333333338882 0  1 0.1166666666671522 0  1 0.1000000000004161 0  1 0.08333333333368009 0  1 0.0666666666669441 0  1 0.0500000000002081 0  1 0.0333333333334721 0  1 0.01666666666673611 0  0.9833333333332639 0 0  0.9666666666665279 0 0  0.9499999999997918 0 0  0.9333333333330557 0 0  0.9166666666663196 0 0  0.8999999999995836 0 0  0.8833333333328475 0 0  0.866666666666204 0 0  0.8499999999996529 0 0  0.8333333333331019 0 0  0.8166666666665509 0 0  0.7999999999999998 0 0  0.7833333333334488 0 0  0.7666666666668978 0 0  0.7500000000003467 0 0  0.7333333333337957 0 0  0.7166666666672447 0 0  0.7000000000006936 0 0  0.6833333333341425 0 0  0.6666666666675913 0 0  0.6500000000010403 0 0  0.6333333333344893 0 0  0.6166666666679381 0 0  0.6000000000013871 0 0  0.5833333333348359 0 0  0.5666666666682849 0 0  0.5500000000017338 0 0  0.5333333333351827 0 0  0.5166666666686317 0 0  0.5000000000020588 0 0  0.4833333333353446 0 0  0.4666666666686085 0 0  0.4500000000018723 0 0  0.4333333333351365 0 0  0.4166666666684004 0 0  0.4000000000016645 0 0  0.3833333333349284 0 0  0.3666666666681924 0 0  0.3500000000014564 0 0  0.3333333333347203 0 0  0.3166666666679844 0 0  0.3000000000012483 0 0  0.2833333333345123 0 0  0.2666666666677763 0 0  0.2500000000010403 0 0  0.2333333333343043 0 0  0.2166666666675682 0 0  0.2000000000008323 0 0  0.1833333333340962 0 0  0.1666666666673602 0 0  0.1500000000006242 0 0  0.1333333333338882 0 0  0.1166666666671522 0 0  0.1000000000004161 0 0  0.08333333333368009 0 0  0.0666666666669441 0 0  0.0500000000002081 0 0  0.0333333333334721 0 0  0.01666666666673611 0 0  0.509813534901316 0.6997590912392742 0  0.5196034281455613 0.6990369453265945 0  0.5293460950072104 0.6978353019757286 0  0.5390180645102941 0.6961570560593489 0  0.5485960361117203 0.694006250606078 0  0.5580569355928373 0.6913880671033832 0  0.5673779708376233 0.6883088129796489 0  0.5765366866897581 0.6847759064124807 0  0.5855110189352534 0.6807978585068273 0  0.5942793476145458 0.6763842527363926 0  0.6028205490566603 0.6715457218693807 0  0.6111140468627737 0.6662939222875488 0  0.6191398611787143 0.660641506088298 0  0.6268786571225081 0.6546020904347318 0  0.6343117912423559 0.6481902248236022 0  0.6414213565337028 0.6414213559409162 0  0.6481902253191905 0.6343117906955585 0  0.6546020908762025 0.6268786565845745 0  0.6606415064698298 0.6191398606642782 0  0.6662939226101401 0.6111140463799817 0  0.6715457221321777 0.60282054861821 0  0.6763842529532568 0.5942793472088216 0  0.6807978586909273 0.5855110185460064 0  0.6847759065511181 0.5765366863550574 0  0.6883088130718585 0.5673779705799145 0  0.6913880671719002 0.5580569353669671 0  0.6940062506574558 0.5485960359066085 0  0.6961570560900702 0.5390180643558474 0  0.69783530199605 0.5293460948702149 0  0.699036945332201 0.5196034280886392 0  0.699759091239897 0.5098135348886358 0  0.6997590912390645 0.490186465094417 0  0.6990369453269616 0.4803965718581653 0  0.6978353019765836 0.4706539049985532 0  0.6961570560561958 0.4609819354738547 0  0.6940062506047444 0.4514039638829558 0  0.6913880670972072 0.4419430643868031 0  0.6883088129588558 0.4326220291042641 0  0.6847759063864243 0.4234633132473365 0  0.680797858492085 0.4144889810335766 0  0.6763842527263828 0.4057206523667271 0  0.6715457218366788 0.39717945088878 0  0.666293922279546 0.3888859531252493 0  0.660641506081824 0.3808601388125566 0  0.6546020904195651 0.3731213428590112 0  0.6481902247926414 0.3656882087234841 0  0.6414213559102896 0.3585786434356707 0  0.6343117906574078 0.3518097746462317 0  0.6268786565431821 0.3453979090898275 0  0.6191398606272244 0.3393584935026892 0  0.6111140463408675 0.3337060773637247 0  0.6028205485778022 0.3284542778436029 0  0.594279347157419 0.3236157470192681 0  0.5855110185061115 0.3192021412902038 0  0.5765366863199255 0.3152240934343298 0  0.5673779705493021 0.3116911869171882 0  0.558056935342545 0.3086119328206914 0  0.5485960358920748 0.3059937493389036 0  0.5390180643394958 0.3038429439066773 0  0.5293460948650247 0.30216469800318 0  0.5196034280783361 0.3009630546667843 0  0.5098135348837231 0.3002409087598616 0  0.4901864650953643 0.3002409087608889 0  0.4803965718704779 0.3009630546718257 0  0.4706539050095124 0.3021646980217907 0  0.4609819354642424 0.3038429439457161 0  0.4514039638607492 0.3059937494008179 0  0.4419430643916536 0.3086119329013214 0  0.4326220291432413 0.3116911870271979 0  0.4234633133350004 0.315224093577264 0  0.4144889811084593 0.3192021414724981 0  0.4057206524157181 0.3236157472474309 0  0.3971794509324075 0.3284542781371718 0  0.3888859531541268 0.3337060777011586 0  0.3808601388424041 0.3393584938960394 0  0.3731213428858304 0.3453979095584248 0  0.3656882087270875 0.3518097752040925 0  0.3585786434435801 0.3585786440818008 0  0.3518097746334893 0.3656882093566512 0  0.3453979090777707 0.3731213434715092 0  0.3393584934987964 0.3808601393780244 0  0.3337060773657347 0.3888859536561242 0  0.3284542778496228 0.397179451412154 0  0.3236157470128611 0.4057206528545674 0  0.3192021412665296 0.4144889815439433 0  0.3152240934284521 0.4234633136942642 0  0.311691186910352 0.4326220294698035 0  0.3086119328114805 0.4419430646878191 0  0.3059937493284646 0.4514039641495997 0  0.3038429438988954 0.4609819356996258 0  0.3021646979955982 0.4706539051860876 0  0.3009630546606569 0.4803965719838768 0  0.3002409087569564 0.4901864651754135 0  0.3002409087604827 0.509813534896367 0  0.3009630546734843 0.519603428146363 0  0.3021646980216319 0.5293460949894176 0  0.3038429439343437 0.5390180644785849 0  0.3059937493996987 0.5485960361347828 0  0.3086119329038756 0.5580569356167667 0  0.31
[...]
<PointData  Scalars="f_17"> 
<DataArray  type="Float64"  Name="f_17"  format="ascii">7.0000000000000000e+01  7.0000000000000000e+01  2.0000000000000000e+01  2.0000000000000000e+01  3.9107091569715628e+01  2.4696727983081239e+01  3.9087486893995276e+01  5.9848702981900729e+01  7.0000000000000000e+01  7.0000000000000000e+01  7.0000000000000000e+01  7.0000000000000000e+01  7.0000000000000000e+01  7.0000000000000000e+01  7.0000000000000000e+01  7.0000000000000000e+01  7.0000000000000000e+01  7.0000000000000000e+01  7.0000000000000000e+01  7.0000000000000000e+01  7.0000000000000000e+01  7.0000000000000000e+01  7.0000000000000000e+01  7.0000000000000000e+01  7.0000000000000000e+01  7.0000000000000000e+01  7.0000000000000000e+01  7.0000000000000000e+01  7.0000000000000000e+01  7.0000000000000000e+01  7.0000000000000000e+01  7.0000000000000000e+01  7.0000000000000000e+01  7.0000000000000000e+01  7.0000000000000000e+01  7.0000000000000000e+01  7.0000000000000014e+01  7.0000000000000000e+01  7.0000000000000000e+01  7.0000000000000000e+01  7.0000000000000000e+01  7.0000000000000000e+01  7.0000000000000000e+01  7.0000000000000000e+01  7.0000000000000000e+01  7.0000000000000000e+01  7.0000000000000000e+01  7.0000000000000000e+01  7.0000000000000000e+01  7.0000000000000000e+01  7.0000000000000000e+01  6.9999999999999986e+01  7.0000000000000000e+01  7.0000000000000000e+01  7.0000000000000000e+01  7.0000000000000000e+01  7.0000000000000000e+01  7.0000000000000000e+01  7.0000000000000000e+01  7.0000000000000000e+01  7.0000000000000000e+01  7.0000000000000000e+01  7.0000000000000000e+01  7.0000000000000000e+01  7.0000000000000000e+01  7.0000000000000014e+01  7.0000000000000000e+01  6.7674713504837854e+01  6.5846266362091313e+01  6.4213942709134898e+01  6.2706032895027235e+01  6.1289286330693329e+01  5.9941252584820099e+01  5.8648926575001667e+01  5.7407433374889941e+01  5.6204443675517062e+01  5.5035056591228667e+01  5.3895040499806328e+01  5.2780099123009535e+01  5.1686888498689797e+01  5.0612947860495055e+01  4.9555627593627513e+01  4.8513318166485000e+01  4.7484159350109245e+01  4.6466839584606340e+01  4.5460453112745377e+01  4.4463743434054031e+01  4.3476924962693886e+01  4.2499342862298626e+01  4.1531474014436661e+01  4.0572950144769017e+01  3.9625187209863228e+01  3.8687822810199876e+01  3.7762429481936806e+01  3.6849765005674122e+01  3.5951157719306082e+01  3.5067646264481347e+01  3.4199975073500340e+01  3.3350137575164389e+01  3.2519697821459118e+01  3.1708901878930927e+01  3.0918759374609774e+01  3.0150554870265992e+01  2.9405090617754595e+01  2.8683113062959990e+01  2.7984966441362872e+01  2.7310638581145273e+01  2.6660795826814020e+01  2.6036339901325956e+01  2.5436805763470122e+01  2.4862275925383376e+01  2.4312756996455139e+01  2.3788521403984966e+01  2.3289392414474559e+01  2.2815812249846690e+01  2.2368552022376928e+01  2.1946775399582418e+01  2.1552226170173917e+01  2.1186195026510436e+01  2.0850304737839551e+01  2.0546541533143603e+01  2.0279106826640707e+01  2.0053566326402994e+01  1.9878449659213359e+01  1.9768909226266306e+01  1.9759515283998759e+01  2.0000000000000000e+01  2.0000000000000000e+01  2.0000000000000000e+01  2.0000000000000000e+01  2.0000000000000000e+01  2.0000000000000000e+01  2.0000000000000000e+01  2.0000000000000000e+01  2.0000000000000000e+01  2.0000000000000000e+01  2.0000000000000000e+01  2.0000000000000000e+01  2.0000000000000000e+01  2.0000000000000000e+01  2.0000000000000000e+01  2.0000000000000000e+01  2.0000000000000000e+01  2.0000000000000000e+01  2.0000000000000000e+01  2.0000000000000000e+01  2.0000000000000000e+01  2.0000000000000000e+01  2.0000000000000000e+01  2.0000000000000004e+01  2.0000000000000000e+01  2.0000000000000000e+01  2.0000000000000000e+01  2.0000000000000000e+01  2.0000000000000000e+01  2.0000000000000000e+01  2.0000000000000000e+01  2.0000000000000000e+01  2.0000000000000000e+01  2.0000000000000000e+01  2.0000000000000000e+01  2.0000000000000000e+01  2.0000000000000000e+01  2.0000000000000000e+01  2.0000000000000000e+01  2.0000000000000000e+01  2.0000000000000000e+01  2.0000000000000000e+01  2.0000000000000000e+01  2.0000000000000000e+01  2.0000000000000000e+01  2.0000000000000000e+01  2.0000000000000000e+01  2.0000000000000000e+01  2.0000000000000000e+01  2.0000000000000000e+01  2.0000000000000000e+01  2.0000000000000000e+01  2.0000000000000000e+01  2.0000000000000000e+01  2.0000000000000000e+01  2.0000000000000000e+01  2.0000000000000000e+01  2.0000000000000000e+01  2.0000000000000000e+01  1.9528764340708872e+01  1.9387757721813362e+01  1.9382255781941325e+01  1.9468874146722360e+01  1.9621775689464290e+01  1.9832144167929521e+01  2.0088983547161853e+01  2.0389217030229826e+01  2.0730940231073276e+01  2.1107735495619696e+01  2.1519737488020713e+01  2.1965223464104501e+01  2.2443138589253220e+01  2.2954886966586535e+01  2.3493056308740112e+01  2.4065838999639016e+01  2.4667093995783269e+01  2.5297900580962668e+01  2.5958825102445072e+01  2.6648697213160094e+01  2.7367032403145359e+01  2.8113379192172651e+01  2.8887038013185123e+01  2.9687463811010193e+01  3.0512841686065979e+01  3.1362567638705794e+01  3.2236210949787313e+01  3.3131159107626281e+01  3.4046222150338068e+01  3.4980881807848945e+01  3.5932690933888978e+01  3.6900667178844401e+01  3.7882583969929513e+01  3.8877316029226570e+01  3.9883920277306757e+01  4.0900540808851225e+01  4.1926522207435610e+01  4.2960954175964019e+01  4.4003105775451559e+01  4.5052650732838316e+01  4.6109429063940432e+01  4.7172977015236164e+01  4.8244203311213063e+01  4.9323953039414526e+01  5.0411761026349488e+01  5.1509660775667889e+01  5.2619377155451062e+01  5.3741523716691333e+01  5.4878382117878964e+01  5.6032946177752876e+01  5.7206137130567257e+01  5.8402742391568644e+01  5.9627729508267805e+01  6.0885117281505757e+01  6.2180023640684851e+01  6.3522830139525141e+01  6.4929860493169784e+01  6.6422477671146311e+01  6.8045914551997555e+01  3.8247842597456525e+01  3.7407175011362867e+01  3.6586988869336054e+01  3.5788994048332746e+01  3.5014539878355059e+01  3.4265006677696668e+01  3.3541486823911953e+01  3.2844950315191852e+01  3.2175974345337188e+01  3.1535423447278784e+01  3.0923740394898896e+01  3.0340411410646318e+01  2.9786209276817132e+01  2.9262381221453644e+01  2.8766943476877660e+01  2.8301017780293261e+01  2.7864469690167041e+01  2.7456392858369576e+01  2.7077063832767170e+01  2.6726888985696576e+01  2.6405053183073072e+01  2.6111068585497389e+01  2.5845110818355344e+01  2.5607365432982476e+01  2.5397292322268616e+01  2.5215085732326703e+01  2.5060318578819512e+01  2.4933142852306155e+01  2.4833240333407101e+01  2.4760317791559146e+01  2.4715298472841869e+01  2.4705366045556218e+01  2.4743063751913915e+01  2.4806007502255909e+01  2.4896495803612833e+01  2.5014806962484908e+01  2.5160942062636511e+01  2.5334698303617028e+01  2.5535449461352304e+01  2.5764627508596416e+01  2.6022540898178853e+01  2.6308560867755030e+01  2.6623370198576321e+01  2.6967559099036105e+01  2.7340655562700391e+01  2.7743749694241139e+01  2.8176576339601645e+01  2.8639687255465894e+01  2.9133105067402568e+01  2.9657183512540268e+01  3.0211426746911435e+01  3.0795634113625347e+01  3.1411017137338291e+01  3.2056327175528303e+01  3.2732532871017902e+01  3.3436579076935331e+01  3.4169203559479428e+01  3.4929245736241477e+01  3.5715046361958166e+01  3.6525245390534593e+01  3.7359164384822485e+01  3.8214472689566342e+01  3.9978088242138604e+01  4.0881900002769846e+01  4.1798750414702134e+01  4.2722287553652500e+01  4.3654096702429989e+01  4.4587172917458076e+01  4.5520048274070007e+01  4.6448818278542447e+01  4.7370498600614347e+01  4.8281641146467379e+01  4.9178736221890610e+01  5.0058145301645702e+01  5.0916213799242911e+01  5.1752041802271492e+01  5.2559475516523420e+01  5.3335322531491890e+01  5.4080831366111859e+01  5.4789093374300464e+01  5.5459496549572158e+01  5.6088396151976774e+01  5.6674815495745335e+01  5.7215670603785014e+01  5.7710122099381444e+01  5.8155681932898965e+01  5.8550981934293084e+01  5.8895791934669447e+01  5.9189624460994892e+01  5.9429659944984451e+01  5.9614615946703168e+01  5.9746961756585861e+01  5.9825770107463015e+01  5.9818021682724897e+01  5.9729212942756106e+01  5.9589708493081602e+01  5.9394830412242747e+01  5.9146271753257786e+01  5.8844823734283686e+01  5.8492535718317264e+01  5.8088755383172050e+01  5.7634900307530778e+01  5.7133757612470795e+01  5.6586516791885963e+01  5.5995010459474408e+01  5.5360187869621654e+01  5.4685034425876964e+01  5.3972298467960293e+01  5.3228014955223408e+01  5.2447992056197769e+01  5.1638896151032704e+01  5.0806936778826049e+01  4.9950834552233580e+01  4.9075341493333170e+01  4.8183985717770661e+01  4.7280084418758229e+01  4.6366934524516275e+01  4.5447760572300332e+01  4.4525970568821492e+01  4.3604644605393020e+01  4.2687779922086172e+01  4.1775778220348279e+01  4.0873099958902358e+01  3.9982610199143977e+01  2.8522723070114949e+01  2.6886990674643595e+01  2.7933568974552308e+01  2.9898983018621770e+01  5.3535773729103767e+01  5.0382383616835490e+01  5.3006736143754495e+01  5.5796517502225427e+01  3.0615113522227947e+01  2.6432268311492859e+01  5.6307837565527173e+01  4.9583341797228734e+01  2.0288137906346048e+01  2.2506205923176974e+01  6.8946717284932689e+01  5.2619693530922596e+01  2.3797807411399859e+01  2.0289245800123471e+01  5.2210898933526394e+01  6.9161494668071043e+01  4.6816310557057925e+01  5.7962837691477503e+01  3.2344073317920497e+01  2.5711962591458921e+01  5.8293170566925482e+01  4.5986855043924542e+01  3.3178904196034154e+01  2.5426699273013636e+01  4.3165246721391966e+01  3.5323923756065646e+01  5.9337837660572589e+01  2.4980517553512421e+01  5.9509850306256467e+01  3.6168891728351355e+01  2.4839939716010178e+01  4.2277430664834348e+01  5.9870412523771456e+01  3.9529467891503337e+01  3.8640658700846537e+01  2.4689415202615237e+01  6.9214398668849427e+01  2.0295277699726036e+01  4.7375887689987458e+01  2.5372105092299609e+01  2.0276901390844749e+01  6.9223925922111547e+01  2.6582023469985568e+01  4.7142106749281588e+01  4.2400004783952539e+01  6.9282592996082727e+01  2.8813669871676876e+01  2.0330522762843948e+01  6.9310770676158711e+01  4.2768449821212869e+01  2.0266519630403277e+01  2.9380783514203351e+01  3.8459527549384440e+01  3.2104934471869043e+01  6.9336299986773824e+01  2.0279250943234267e+01  6.9333126201516833e+01  3.2500054784274120e+01  2.0282745140705806e+01  3.8754719980977413e+01  2.1957117974135826e+01  2.0267825674525458e+01  5.7144163162646798e+01  6.8968335669910829e+01  2.0289015635347784e+01  2.0850750747761410e+01  5.7275906233739178e+01  6.9089445744811940e+01  6.9414085902882533e+01  3.4863701546916964e+01  2.0295108849001696e+01  3.5792263452544709e+01  2.0639327018746044e+01  2.0155585847709879e+01  6.8841944454380425e+01  6.1854688039564287e+01  2.0217285577789010e+01  2.0038479409061036e+01  6.1015163597033066e+01  6.8871632675947112e+01  2.9534311064339345e+01  2.7123356547861256e+01  5.5068789959717492e+01  5.1390552204989213e+01  2.5881586990519271e+01  4.7834783918804312e+01  3.1834081502435705e+01  5.8760172670014690e+01  2.6248088648384588e+01  3.1075674646591782e+01  3.3813127246368168e+01  2.5291468993732398e+01  4.4156159290826572e+01  5.9018849582537712e+01  5.7402638000935688e+01  4.8625615103297633e+01  5.6972825155556912e+01  2.7653498850305489e+01  5.2191604838638163e+01  2.8876810439547452e+01  5.4455436615406384e+01  4.4995854213393798e+01  4.1319173269050822e+01  2.4782300771985572e+01  5.9721043291434235e+01  3.6948803027876650e+01  3.7817378094263162e+01  5.9810245579923055e+01  3.4626545898136875e+01  2.4706793068491439e+01  4.0391422326432725e+01  2.5072823700282431e+01  6.9339480924021430e+01  3.0841210609805927e+01  3.6735633513710482e+01  4.0408778482665070e+01  3.0402002523932666e+01  3.3965349453344686e+01  6.9289212685890618e+01  6.9369763553106779e+01  2.0326577190009878e+01  2.0290848763865647e+01  4.0759914136660235e+01  4.4828052314452258e+01  2.0281846131183954e+01  4.4337498608135874e+01  6.9292750214715682e+01  2.7363149351897412e+01  2.0328343284044799e+01  2.0283376336034312e+01  2.0294406717052176e+01  6.9288783627575881e+01  6.9253483163957583e+01  2.7964396358399682e+01  2.5408823122967895e+01  4.9016731764864993e+01  6.9257479641580403e+01  4.9416745450089316e+01  2.0250278599052944e+01  2.4086982442455717e+01  2.0261637528180827e+01  5.4629503681096075e+01  2.2857128462826786e+01  2.0216813789382794e+01  5.9127804927268350e+01  6.8992526007946708e+01  2.0297516947756034e+01  2.1642948720642007e+01  6.9050588748073125e+01  5.4886870708653667e+01  2.1236904677097463e+01  2.0072021738188830e+01  2.0197971036012660e+01  6.4503384112668627e+01  6.9032483621443021e+01  6.8541506268321115e+01  2.0139719414312836e+01  1.9749184153664203e+01  6.4006818744356508e+01  6.8805800584154014e+01  6.7487638936135028e+01  6.8452503339175053e+01  2.0022566532533119e+01  1.9906923815857564e+01  5.6874927518220595e+01  5.6641799561236546e+01  5.6082637289444655e+01  5.6427530131737164e+01  5.6984042935499382e+01  5.6796384307291731e+01  5.7323046665177117e+01  5.7168041631276594e+01  5.7685912182550403e+01  5.7555239663949436e+01  5.8058116432647630e+01  5.7959761610713230e+01  5.7454790694779561e+01  5.7893506153643322e+01  5.7375116544075809e+01  5.8431346926059561e+01  5.7885019809949384e+01  5.7349221245895485e+01  5.7872955166021647e+01  5.7320509633662262e+01  5.7833518724136958e+01  5.7271066906753639e+01  5.8382542233650611e+01  5.7835701008179527e+01  5.7265699202364736e+01  5.7864215956945628e+01  5.7280803446776311e+01  5.7912256946889485e+01  5.7317963022216723e+01  5.7978427983805268e+01  5.7378980553110978e+01  5.6699637538123767e+01  5.6759416150966182e+01  5.6063490328526463e+01  5.6123113410519672e+01  5.5407662869798848e+01  5.5471002347744999e+01  5.4737766649577587e+01  5.6237508673603671e+01  5.4804865052833556e+01  5.4061067205814979e+01  5.8558433140367384e+01  5.8645315095139566e+01  5.4127215885902544e+01  5.3367279346055206e+01  5.3437061799739944e+01  5.2655816454417341e+01  5.9219165498201832e+01  5.9323938056036894e+01  5.2734336455891338e+01  5.1934941370263111e+01  5.3479341999881250e+01  5.9892291550002966e+01  6.0018141873732354e+01  5.2019751365998800e+01  5.1209861011220440e+01  5.1129345065682415e+01  5.0398621722068164e+01  5.0326700302586211e+01  4.9592291179470422e+01  4.9668694057540925e+01  4.8854766063011510e+01  4.8777136270458165e+01  4.8039567930658514e+01  6.0586718208143687e+01  6.0729779067372711e+01  4.7964708742131045e+01  4.7229786582280781e+01  4.7308994171072236e+01  4.6492815298309900e+01  4.6422372865579156e+01  4.5678634245062590e+01  4.5594427234322595e+01  4.4864155260649810e+01  4.4741949059313448e+01  4.4047538113555063e+01  4.3889830183206165e+01  4.3238224942149486e+01  5.4002681954919289e+01  4.3307324946672395e+01  4.2515948541149257e+01  4.2401071239823843e+01  4.1727905764440195e+01  4.1594248021687449e+01  4.0912870458900926e+01  4.0786268529550490e+01  4.0126646183936209e+01  3.9985381215797787e+01  3.9363198884006927e+01  3.9196726575787011e+01  3.8591789737595853e+01  3.8403352452446178e+01  3.7826142796841246e+01  3.7625396120721255e+01  3.7071530859373190e+01  3.6861155227816511e+01  3.6341276201173713e+01  3.6112376810693938e+01  3.5539860247420755e+01  3.5364759097914771e+01  3.4887913950866526e+01  3.4651522163432723e+01  3.4197797418861931e+01  3.3949794658736536e+01  3.3510436953691745e+01  3.3287028765593973e+01  3.2856488428896242e+01  3.2645191928758514e+01  3.2206659446398305e+01  3.1984870323436027e+01  3.1577475790955454e+01  3.1337408109867226e+01  3.0970865873530702e+01  3.0729638224560027e+01  3.0366167366164916e+01  3.0144502862675626e+01  2.9804046462020029e+01  2.9581349601019443e+01  2.9258987440897460e+01  2.9038351093737102e+01  2.8722215777257997e+01  2.8508696091033841e+01  2.8204933304421676e+01  2.7994690043334693e+01  2.7699634784093263e+01  2.7496200796050882e+01  2.7209078090155845e+01  2.7012776950221113e+01  2.6731159715868387e+01  2.6542415724087348e+01  2.6267072215567918e+01  2.6083979672601657e+01  2.5815066267433036e+01  2.5642095225245782e+01  2.5893760020912119e+01  2.5463099466582808e+01  2.5698889751613361e+01  2.5292497720068578e+01  2.5499038294796708e+01  2.5106793761191252e+01  2.5295719656941376e+01  2.4905139011888465e+01  2.5091179853807009e+01  2.5376735518291579e+01  2.4711915125571519e+01  2.4887004089938966e+01  2.4520165775188708e+01  2.4684166361507458e+01  2.4329652870643102e+01  2.4483785675800558e+01  2.4751506508299901e+01  2.5719079734643167e+01  2.4141194048690341e+01  2.4288392206628750e+01  2.8280370871933403e+01  2.3955928850618907e+01  2.4095860753609760e+01  2.3774349284033381e+01  2.3901478601047565e+01  2.6428396492043483e+01  2.4819422529211074e+01  2.9421408356538681e+01  2.3595517270153554e+01  2.3722107983985683e+01  2.3988056902901580e+01  3.2418198485002712e+01  2.4214469560086286e+01  3.6539879481114113e+01  2.3435792307600558e+01  2.3547413855595817e+01  2.9897541238814583e+01  6.1289599979800030e+01  6.1138310482110128e+01  6.1454152429161887e+01  6.0916944890203389e+01  3.9515198796600245e+01  2.3298008015244008e+01  2.3397897222006538e+01  2.3706081640723347e+01  2.3510439691257247e+01  2.3256665837061266e+01  2.3346590533211849e+01  2.3613260974222879e+01  2.3460289553365065e+01  2.3201113533974898e+01  2.3317942557315533e+01  2.3064104657175807e+01  2.3185265790313821e+01  2.3428978817748973e+01  2.3302742942594296e+01  2.3060695060792654e+01  2.3185063623770247e+01  2.2944571822828163e+01  2.3074631284920656e+01  2.3302785575957781e+01  2.3218647031871679e+01  2.2973842319342356e+01  2.3101123677669175e+01  2.2873385979537577e+01  2.3018401134652599e+01  2.3225847431797916e+01  2.3157592613670651e+01  2.2934084078301375e+01  2.3091750207598686e+01  2.3299424532413614e+01  2.3243037180573307e+01  2.3026330894300070e+01  2.3194293644214010e+01  2.3405704751300370e+01  2.3364676080710975e+01  2.3143218279857891e+01  2.3314630155671779e+01  2.3529314385883495e+01  2.3486395389992232e+01  2.3258631163941523e+01  2.3452279800976143e+01  2.3704869419772322e+01  2.3659261262665424e+01  2.3405132253514971e+01  2.3616406496314138e+01  2.3873769444858990e+01  2.3836910560309157e+01  2.4099464624749853e+01  2.4065523791785441e+01  2.3791434476048831e+01  2.4023496388523142e+01  2.4321288836769291e+01  2.4276800131237955e+01  2.3972390956787844e+01  2.4219176105318631e+01  2.4537200363827871e+01  2.4475207761586738e+01  2.4789228001019826e+01  2.4734557667624223e+01  2.5064019126022625e+01  2.5006906990158058e+01  2.4664455476903040e+01  2.4932540848513579e+01  2.5290064999070893e+01  2.5210964721775323e+01  2.5582833458706940e+01  2.5494818042821670e+01  2.5883067300502461e+01  2.5782750665048393e+01  2.6188430190383254e+01  2.5371015458256863e+01  2.6077275219631115e+01  2.6496538640574414e+01  2.6380339752038537e+01  2.6816375267553052e+01  2.6685216768301451e+01  2.7146032592879699e+01  2.6996685106038310e+01  2.7489206585348878e+01  2.6565287578291201e+01  2.7310754725960216e+01  2.7826817303446557e+01  2.7615431634939434e+01  2.8145501627445903e+01  2.8346781398148490e+01  2.8692617195786955e+01  2.8476397955030997e+01  2.9044149682299860e+01  2.9257527525902294e+01  2.9628913544947196e+01  2.7281990229479401e+01  2.9841328246603037e+01  3.0230222205576485e+01  2.9998434337908765e+01  3.0619944721165215e+01  3.0866977982371349e+01  3.1270646829130616e+01  3.1008184937382691e+01  3.1670866992966591e+01  3.1935152155614034e+01  3.2352121281620917e+01  2.6264430952081995e+01  3.2611579104583676e+01  3.3049455084786416e+01  3.2766166210906803e+01  3.3482196073415558e+01  3.3771784288943564e+01  3.4217838767638149e+01  3.4517294854991732e+01  3.4976159731344616e+01  3.4673364028440240e+01  3.5423975438752123e+01  3.5753770194419900e+01  3.6206536259004956e+01  3.6545462413713288e+01  3.7003733879884663e+01  3.7352274647575811e+01  3.7813888214385138e+01  3.8165617081256599e