<?xml version="1.0"?>
<VTKFile type="UnstructuredGrid"  version="0.1"  >
<UnstructuredGrid>
<Piece  NumberOfPoints="8275" NumberOfCells="40443">
<Points>
<DataArray  type="Float64"  NumberOfComponents="3"  format="ascii">0 0 0  0 1 0  1 1 0  1 0 0  0.25 0.8200000000000001 0  0.32 0.75 0  0.25 0.6799999999999999 0  0.18 0.75 0  0.25 0.4033333333333333 0  0.32 0.3333333333333333 0  0.25 0.2633333333333333 0  0.18 0.3333333333333333 0  0.75 0.4033333333333333 0  0.8200000000000001 0.3333333333333333 0  0.75 0.2633333333333333 0  0.6799999999999999 0.3333333333333333 0  0.5 0.2366666666666667 0  0.5700000000000001 0.1666666666666667 0  0.5 0.09666666666666665 0  0.43 0.1666666666666667 0  0.75 0.2366666666666667 0  0.8200000000000001 0.1666666666666667 0  0.75 0.09666666666666665 0  0.6799999999999999 0.1666666666666667 0  0 0.5 0  1 0.5 0  0.5 0.2366666666666667 1  0.5700000000000001 0.1666666666666667 1  0.5 0.09666666666666665 1  0.43 0.1666666666666667 1  0.75 0.2366666666666667 1  0.8200000000000001 0.1666666666666667 1  0.75 0.09666666666666665 1  0.6799999999999999 0.1666666666666667 1  1 0 1  0 0 1  0 0.5 1  1 0.5 1  0.25 0.4033333333333333 1  0.18 0.3333333333333333 1  0.25 0.2633333333333333 1  0.32 0.3333333333333333 1  0.75 0.4033333333333333 1  0.6799999999999999 0.3333333333333333 1  0.75 0.2633333333333333 1  0.8200000000000001 0.3333333333333333 1  0 1 1  1 1 1  0.25 0.8200000000000001 1  0.18 0.75 1  0.25 0.6799999999999999 1  0.32 0.75 1  0.04999999999989965 1 0  0.09999999999981467 1 0  0.1499999999997036 1 0  0.1999999999995579 1 0  0.2499999999994121 1 0  0.2999999999992664 1 0  0.3499999999991206 1 0  0.3999999999989749 1 0  0.4499999999988292 1 0  0.4999999999986943 1 0  0.5499999999988151 1 0  0.5999999999989468 1 0  0.6499999999990784 1 0  0.69999999999921 1 0  0.7499999999993417 1 0  0.7999999999994734 1 0  0.8499999999996051 1 0  0.8999999999997368 1 0  0.9499999999998684 1 0  0.9499999999997918 0 0  0.8999999999995836 0 0  0.8499999999996529 0 0  0.7999999999999998 0 0  0.7500000000003466 0 0  0.7000000000006934 0 0  0.6500000000010401 0 0  0.6000000000013869 0 0  0.5500000000017335 0 0  0.5000000000020587 0 0  0.4500000000018723 0 0  0.4000000000016644 0 0  0.3500000000014564 0 0  0.3000000000012483 0 0  0.2500000000010403 0 0  0.2000000000008322 0 0  0.1500000000006241 0 0  0.100000000000416 0 0  0.05000000000020799 0 0  0.2850000000255742 0.8106217782501455 0  0.3106217783121643 0.7849999999181546 0  0.3106217782116551 0.7149999999077585 0  0.2849999998813906 0.6893782216666101 0  0.215000000000276 0.6893782217349299 0  0.1893782216956828 0.7150000000682539 0  0.1893782217682971 0.7850000000575177 0  0.2150000000780777 0.8106217783099889 0  0.2850000001103672 0.3939551115345235 0  0.3106217783399763 0.3683333332033159 0  0.3106217782111902 0.2983333332402868 0  0.2849999999172895 0.2727115550206696 0  0.2149999998903572 0.2727115551317249 0  0.1893782216615306 0.2983333334607406 0  0.1893782217689946 0.3683333333920591 0  0.2150000000423803 0.3939551116227124 0  0.7850000000771966 0.3939551115536746 0  0.8106217783504041 0.3683333331852546 0  0.810621778262934 0.2983333333299095 0  0.7849999999281275 0.2727115550269269 0  0.7149999999228034 0.2727115551129921 0  0.6893782216495959 0.2983333334814121 0  0.689378221737066 0.3683333333367571 0  0.7150000000718725 0.3939551116397397 0  0.5350000000692615 0.2272884448915892 0  0.5606217783228378 0.201666666566334 0  0.5606217782527273 0.1316666666455643 0  0.5349999999312799 0.1060448883620803 0  0.4649999999038957 0.1060448884572418 0  0.4393782216884967 0.1316666667473673 0  0.4393782217832205 0.2016666667500324 0  0.4650000001157128 0.2272884449983842 0  0.7850000000692615 0.2272884448915892 0  0.8106217783228378 0.201666666566334 0  0.8106217782527273 0.1316666666455643 0  0.7849999999312799 0.1060448883620803 0  0.7149999999365578 0.1060448884383843 0  0.6893782216779222 0.1316666667656829 0  0.6893782217485556 0.201666666689991 0  0.7150000000660517 0.2272884449697124 0  0.04999999999989965 0.5 0  0.09999999999981467 0.5 0  0.1499999999997036 0.5 0  0.1999999999995579 0.5 0  0.2499999999994121 0.5 0  0.2999999999992664 0.5 0  0.3499999999991206 0.5 0  0.3999999999989749 0.5 0  0.4499999999988292 0.5 0  0.4999999999986943 0.5 0  0.5499999999988151 0.5 0  0.5999999999989468 0.5 0  0.6499999999990784 0.5 0  0.69999999999921 0.5 0  0.7499999999993417 0.5 0  0.7999999999994734 0.5 0  0.8499999999996051 0.5 0  0.8999999999997368 0.5 0  0.9499999999998684 0.5 0  0 0.04999999999990733 0  0 0.09999999999977893 0  0 0.1499999999996332 0  0 0.1999999999994874 0  0 0.2499999999993471 0  0 0.2999999999994734 0  0 0.349999999999605 0  0 0.3999999999997367 0  0 0.4499999999998684 0  0 0.5499999999999999 0  0 0.5999999999999998 0  0 0.6499999999999998 0  0 0.6999999999999998 0  0 0.7499999999999999 0  0 0.7999999999999998 0  0 0.8499999999999999 0  0 0.8999999999999999 0  0 0.95 0  1 0.9500000000000001 0  1 0.9000000000000002 0  1 0.8500000000000002 0  1 0.8000000000000002 0  1 0.7500000000000001 0  1 0.7000000000000002 0  1 0.6500000000000001 0  1 0.6000000000000001 0  1 0.55 0  1 0.4499999999997918 0  1 0.3999999999999999 0  1 0.3500000000003467 0  1 0.3000000000006934 0  1 0.2500000000010293 0  1 0.2000000000008322 0  1 0.1500000000006241 0  1 0.1000000000004161 0  1 0.05000000000020799 0  0.5350000000692615 0.2272884448915892 1  0.5606217783228378 0.201666666566334 1  0.5606217782527273 0.1316666666455643 1  0.5349999999312799 0.1060448883620803 1  0.4649999999038957 0.1060448884572418 1  0.4393782216884967 0.1316666667473673 1  0.4393782217832205 0.2016666667500324 1  0.4650000001157128 0.2272884449983842 1  0.5 0.2366666666666667 0.04999999999989965  0.5 0.2366666666666667 0.09999999999981467  0.5 0.2366666666666667 0.1499999999997036  0.5 0.2366666666666667 0.1999999999995579  0.5 0.2366666666666667 0.2499999999994121  0.5 0.2366666666666667 0.2999999999992664  0.5 0.2366666666666667 0.3499999999991206  0.5 0.2366666666666667 0.3999999999989749  0.5 0.2366666666666667 0.4499999999988292  0.5 0.2366666666666667 0.4999999999986943  0.5 0.2366666666666667 0.5499999999988151  0.5 0.2366666666666667 0.5999999999989468  0.5 0.2366666666666667 0.6499999999990784  0.5 0.2366666666666667 0.69999999999921  0.5 0.2366666666666667 0.7499999999993417  0.5 0.2366666666666667 0.7999999999994734  0.5 0.2366666666666667 0.8499999999996051  0.5 0.2366666666666667 0.8999999999997368  0.5 0.2366666666666667 0.9499999999998684  0.5700000000000001 0.1666666666666667 0.04999999999989965  0.5700000000000001 0.1666666666666667 0.09999999999981467  0.5700000000000001 0.1666666666666667 0.1499999999997036  0.5700000000000001 0.1666666666666667 0.1999999999995579  0.5700000000000001 0.1666666666666667 0.2499999999994121  0.5700000000000001 0.1666666666666667 0.2999999999992664  0.5700000000000001 0.1666666666666667 0.3499999999991206  0.5700000000000001 0.1666666666666667 0.3999999999989749  0.5700000000000001 0.1666666666666667 0.4499999999988292  0.5700000000000001 0.1666666666666667 0.4999999999986943  0.5700000000000001 0.1666666666666667 0.5499999999988151  0.5700000000000001 0.1666666666666667 0.5999999999989468  0.5700000000000001 0.1666666666666667 0.6499999999990784  0.5700000000000001 0.1666666666666667 0.69999999999921  0.5700000000000001 0.1666666666666667 0.7499999999993417  0.5700000000000001 0.1666666666666667 0.7999999999994734  0.5700000000000001 0.1666666666666667 0.8499999999996051  0.5700000000000001 0.1666666666666667 0.8999999999997368  0.5700000000000001 0.1666666666666667 0.9499999999998684  0.5 0.09666666666666665 0.04999999999989965  0.5 0.09666666666666665 0.09999999999981467  0.5 0.09666666666666665 0.1499999999997036  0.5 0.09666666666666665 0.1999999999995579  0.5 0.09666666666666665 0.2499999999994121  0.5 0.09666666666666665 0.2999999999992664  0.5 0.09666666666666665 0.3499999999991206  0.5 0.09666666666666665 0.3999999999989749  0.5 0.09666666666666665 0.4499999999988292  0.5 0.09666666666666665 0.4999999999986943  0.5 0.09666666666666665 0.5499999999988151  0.5 0.09666666666666665 0.5999999999989468  0.5 0.09666666666666665 0.6499999999990784  0.5 0.09666666666666665 0.69999999999921  0.5 0.09666666666666665 0.7499999999993417  0.5 0.09666666666666665 0.7999999999994734  0.5 0.09666666666666665 0.8499999999996051  0.5 0.09666666666666665 0.8999999999997368  0.5 0.09666666666666665 0.9499999999998684  0.43 0.1666666666666667 0.04999999999989965  0.43 0.1666666666666667 0.09999999999981467  0.43 0.1666666666666667 0.1499999999997036  0.43 0.1666666666666667 0.1999999999995579  0.43 0.1666666666666667 0.2499999999994121  0.43 0.1666666666666667 0.2999999999992664  0.43 0.1666666666666667 0.3499999999991206  0.43 0.1666666666666667 0.3999999999989749  0.43 0.1666666666666667 0.4499999999988292  0.43 0.1666666666666667 0.4999999999986943  0.43 0.1666666666666667 0.5499999999988151  0.43 0.1666666666666667 0.5999999999989468  0.43 0.1666666666666667 0.6499999999990784  0.43 0.1666666666666667 0.69999999999921  0.43 0.1666666666666667 0.7499999999993417  0.43 0.1666666666666667 0.7999999999994734  0.43 0.1666666666666667 0.8499999999996051  0.43 0.1666666666666667 0.8999999999997368  0.43 0.1666666666666667 0.9499999999998684  0.7850000000692615 0.2272884448915892 1  0.8106217783228378 0.201666666566334 1  0.8106217782527273 0.1316666666455643 1  0.7849999999312799 0.1060448883620803 1  0.7149999999365578 0.1060448884383843 1  0.6893782216779222 0.1316666667656829 1  0.6893782217485556 0.201666666689991 1  0.7150000000660517 0.2272884449697124 1  0.75 0.2366666666666667 0.04999999999989965  0.75 0.2366666666666667 0.09999999999981467  0.75 0.2366666666666667 0.1499999999997036  0.75 0.2366666666666667 0.1999999999995579  0.75 0.2366666666666667 0.2499999999994121  0.75 0.2366666666666667 0.2999999999992664  0.75 0.2366666666666667 0.3499999999991206  0.75 0.2366666666666667 0.3999999999989749  0.75 0.2366666666666667 0.4499999999988292  0.7
[...]
<PointData  Scalars="f_20"> 
<DataArray  type="Float64"  Name="f_20"  format="ascii">1.0000000000000000e+00  1.0000000000000000e+00  3.0788022007130400e+00  4.9798030037430765e+00  2.2636879718369753e+00  2.2642681884668190e+00  2.2638847941091020e+00  2.2631471895356365e+00  4.4218565386780355e+00  4.4220624924856873e+00  4.4220476449389245e+00  4.4218691874480598e+00  4.8162252688041569e+00  4.8163329835132842e+00  4.8164007675330183e+00  4.8163217557457809e+00  4.9402896717585358e+00  4.9403221815588561e+00  4.9403243923345128e+00  4.9402969039501450e+00  4.9593486511082858e+00  4.9593782730087677e+00  4.9593889647721676e+00  4.9593780065687065e+00  1.0000000000000000e+00  3.4155270241261930e+00  4.9402893519901259e+00  4.9403222496726915e+00  4.9403225363218608e+00  4.9402962510995501e+00  4.9592925923003586e+00  4.9593242587038420e+00  4.9593352323492930e+00  4.9593235812940977e+00  4.9797697613454206e+00  1.0000000000000000e+00  1.0000000000000000e+00  3.4153028375211494e+00  4.4218550868876871e+00  4.4218620132078907e+00  4.4220522784308809e+00  4.4220582201842129e+00  4.8162763774133417e+00  4.8163772785234711e+00  4.8164583969401145e+00  4.8163812048929335e+00  1.0000000000000000e+00  3.0793544203818493e+00  2.2636983082061639e+00  2.2631713934164615e+00  2.2638908247255460e+00  2.2642718167629488e+00  1.2474940116041295e+00  1.4859274296785214e+00  1.7079861437372561e+00  1.9021575051287425e+00  2.0687462150175113e+00  2.2065394813795560e+00  2.3295837676525881e+00  2.4388241924952307e+00  2.5388928711731835e+00  2.6310735206490095e+00  2.7153355519752780e+00  2.7909078507505116e+00  2.8585068798582047e+00  2.9170493139773126e+00  2.9664725510495522e+00  3.0067260675809968e+00  3.0382958164105913e+00  3.0603569044134340e+00  3.0743778613490047e+00  4.9796459966293760e+00  4.9796093653378684e+00  4.9780821979073275e+00  4.9763851988548682e+00  4.9753341081957174e+00  4.9738628463245131e+00  4.9716968779894408e+00  4.9666468724477966e+00  4.9566643913075685e+00  4.9386536902763334e+00  4.9044952276506741e+00  4.8413693922102334e+00  4.7374980031405070e+00  4.5739910185439516e+00  4.3261841205227487e+00  3.9621197782609832e+00  3.4508127819399688e+00  2.7742212595764260e+00  1.9431190202345252e+00  2.2639464308605053e+00  2.2641621776815768e+00  2.2642597523034440e+00  2.2641304800719855e+00  2.2635713914692794e+00  2.2632889822148128e+00  2.2632174881464575e+00  2.2634025478364621e+00  4.4219229129239723e+00  4.4219973075235952e+00  4.4220954279002846e+00  4.4220904386707600e+00  4.4219833918463838e+00  4.4219199330223429e+00  4.4218374665933720e+00  4.4218302203492703e+00  4.8162443379849380e+00  4.8162841032280266e+00  4.8163652248615296e+00  4.8163889119715551e+00  4.8163859250789720e+00  4.8163605578893005e+00  4.8162789884242407e+00  4.8162371761200546e+00  4.9402998240891769e+00  4.9403127909591618e+00  4.9403270631590290e+00  4.9403278925551071e+00  4.9403157405023999e+00  4.9403053363997067e+00  4.9402900179701259e+00  4.9402877733042132e+00  4.9593573554980646e+00  4.9593687066621621e+00  4.9593845022836316e+00  4.9593881868491181e+00  4.9593874551171684e+00  4.9593840723857685e+00  4.9593687343503960e+00  4.9593572848109684e+00  1.3305602642531658e+00  1.6488280104725084e+00  1.9419602826560427e+00  2.1985682876392589e+00  2.4001752176202853e+00  2.5547456136598803e+00  2.6814527678142119e+00  2.7915352276666225e+00  2.8924307286603534e+00  2.9855987268407054e+00  3.0721211768297514e+00  3.1517543706244533e+00  3.2251244410064879e+00  3.2896064015289830e+00  3.3378070099583721e+00  3.3723437142352766e+00  3.3935105680729065e+00  3.4046066108996738e+00  3.4119954150291374e+00  1.0000000000000000e+00  1.0000000000000000e+00  1.0000000000000000e+00  1.0000000000000000e+00  1.0000000000000000e+00  1.0000000000000000e+00  1.0000000000000000e+00  1.0000000000000000e+00  1.0000000000000000e+00  1.0000000000000000e+00  1.0000000000000000e+00  1.0000000000000000e+00  1.0000000000000000e+00  1.0000000000000000e+00  1.0000000000000000e+00  1.0000000000000000e+00  1.0000000000000000e+00  1.0000000000000000e+00  3.0823003056659615e+00  3.0933075290683583e+00  3.1108322522681586e+00  3.1353170687703962e+00  3.1663732542173468e+00  3.2046301056994921e+00  3.2488991121512609e+00  3.2992372440087698e+00  3.3552835652403261e+00  3.9494542431296997e+00  4.3281570465494852e+00  4.5849016425591973e+00  4.7511968999443779e+00  4.8526050021195628e+00  4.9124397632277486e+00  4.9477274375637270e+00  4.9670124554976836e+00  4.9766170154360010e+00  4.9403001706734573e+00  4.9403126578146201e+00  4.9403266121462623e+00  4.9403270773080799e+00  4.9403153970325970e+00  4.9403061764212266e+00  4.9402902791761054e+00  4.9402864100783530e+00  4.9402895585934825e+00  4.9402896898984068e+00  4.9402879537042761e+00  4.9402891024203015e+00  4.9402869331880623e+00  4.9402878091052189e+00  4.9402869984553401e+00  4.9402867627689373e+00  4.9402874381487116e+00  4.9402871718195085e+00  4.9402874999419657e+00  4.9402866370050562e+00  4.9402881211628751e+00  4.9402877759598844e+00  4.9402887437677361e+00  4.9402908241674757e+00  4.9402873302207420e+00  4.9402866323983963e+00  4.9402892244710177e+00  4.9403229533111066e+00  4.9403227258964799e+00  4.9403226363399231e+00  4.9403216527339264e+00  4.9403217197225366e+00  4.9403214181509680e+00  4.9403210408088585e+00  4.9403211669638267e+00  4.9403206411925309e+00  4.9403205752995003e+00  4.9403209516409428e+00  4.9403208756561465e+00  4.9403212677991100e+00  4.9403218327990883e+00  4.9403224287743450e+00  4.9403223315662830e+00  4.9403231804928591e+00  4.9403225946352212e+00  4.9403228683154312e+00  4.9403248365126142e+00  4.9403243703371995e+00  4.9403235891836648e+00  4.9403235435778896e+00  4.9403227786069346e+00  4.9403234532769211e+00  4.9403232362479859e+00  4.9403231250655990e+00  4.9403230249282020e+00  4.9403228517897002e+00  4.9403224876417440e+00  4.9403225458063718e+00  4.9403234831997356e+00  4.9403242312032409e+00  4.9403239558657663e+00  4.9403245509560572e+00  4.9403241631707617e+00  4.9403242559158267e+00  4.9403236623794697e+00  4.9402966234464172e+00  4.9402958878831003e+00  4.9402952752596505e+00  4.9402951183575903e+00  4.9402956361364314e+00  4.9402952740038328e+00  4.9402943063616096e+00  4.9402948516734932e+00  4.9402946801275132e+00  4.9402944152694994e+00  4.9402947572632989e+00  4.9402944010570762e+00  4.9402953294812848e+00  4.9402960012368036e+00  4.9402957668280605e+00  4.9402952521314321e+00  4.9402953485555106e+00  4.9402962616316968e+00  4.9402954926293452e+00  4.9593023483146972e+00  4.9593146757024220e+00  4.9593307809901637e+00  4.9593345891272120e+00  4.9593337484823818e+00  4.9593305522169508e+00  4.9593146086756832e+00  4.9593023750908412e+00  4.9593453634156326e+00  4.9593457838831103e+00  4.9593424160811885e+00  4.9593424874013667e+00  4.9593434024980043e+00  4.9593402416388139e+00  4.9593397144178351e+00  4.9593351900086091e+00  4.9593310319593433e+00  4.9593286458414747e+00  4.9593232958369802e+00  4.9593223168345277e+00  4.9593179572702040e+00  4.9593117655227905e+00  4.9593032674428503e+00  4.9592963141373110e+00  4.9592824509042854e+00  4.9592825403217677e+00  4.9592900645324827e+00  4.9593785805937980e+00  4.9593771476659150e+00  4.9593756188101930e+00  4.9593738289202429e+00  4.9593726649929195e+00  4.9593714990195137e+00  4.9593685840494928e+00  4.9593662936645995e+00  4.9593632257328464e+00  4.9593590084281844e+00  4.9593559132004295e+00  4.9593519675956577e+00  4.9593476813768103e+00  4.9593428685121212e+00  4.9593366687969054e+00  4.9593320954203852e+00  4.9593282532366469e+00  4.9593232819016420e+00  4.9593239252875225e+00  4.9593894682077160e+00  4.9593892989265562e+00  4.9593876924762181e+00  4.9593869305606271e+00  4.9593853868915749e+00  4.9593823166484645e+00  4.9593805587867728e+00  4.9593773055702162e+00  4.9593748918004943e+00  4.9593715461700318e+00  4.9593678410151991e+00  4.9593629453196888e+00  4.9593590998390820e+00  4.9593538008318490e+00  4.9593491898807756e+00  4.9593443474250245e+00  4.9593398713120624e+00  4.9593389207978484e+00  4.9593369227630060e+00  4.9593777047325567e+00  4.9593768413185808e+00  4.9593763832549982e+00  4.9593740231637264e+00  4.9593724957142822e+00  4.9593706228088363e+00  4.9593678619284560e+00  4.9593656030469706e+00  4.9593622451430015e+00  4.9593585511143141e+00  4.9593558964452820e+00  4.9593519666017185e+00  4.9593465259435696e+00  4.9593413131031099e+00  4.9593361125892876e+00  4.9593301952653528e+00  4.9593273775226194e+00  4.9593254746184110e+00  4.9593244525393088e+00  4.9795482577352859e+00  4.9793087846257675e+00  4.9780780819505273e+00  4.9763118487866684e+00  4.9753176325818504e+00  4.9740059695046748e+00  4.9719970253424730e+00  4.9665099877418539e+00  4.9566431192001383e+00  4.9392251639126057e+00  4.9049275620427686e+00  4.8405624388593065e+00  4.7354792546863331e+00  4.5704265576171679e+00  4.3260139993635462e+00  3.9657652125141882e+00  3.4549545835210567e+00  2.7779152578786066e+00  1.9409641822322701e+00  1.0000000000000000e+00  1.0000000000000000e+00  1.0000000000000000e+00  9.9999999999999989e-01  1.0000000000000000e+00  1.0000000000000000e+00  1.0000000000000000e+00  1.0000000000000000e+00  1.0000000000000000e+00  1.3343281852607358e+00  1.6455345504559673e+00  1.9410916980279234e+00  2.1977491550828603e+00  2.3987249751896456e+00  2.5545223209890233e+00  2.6795603723963275e+00  2.7917153739791374e+00  2.8922543642457166e+00  2.9861304328847700e+00  3.0723814737345689e+00  3.1525721434882250e+00  3.2245351393730823e+00  3.2900392919363690e+00  3.3388084513945526e+00  3.3716376401514032e+00  3.3921327802879735e+00  3.4044513360774462e+00  3.4118122652919061e+00  3.9505558439735240e+00  4.3272753136449449e+00  4.5877858133836291e+00  4.7529579915335542e+00  4.8518981331970430e+00  4.9120567380343783e+00  4.9465394470670008e+00  4.9672206173939459e+00  4.9767103537892723e+00  4.4218336857026568e+00  4.4218323393457926e+00  4.4219171126274626e+00  4.4219860339694348e+00  4.4220883811207647e+00  4.4220971521557608e+00  4.4220017907992766e+00  4.4219232868945637e+00  4.8162927212199511e+00  4.8163320151791140e+00  4.8164149290085216e+00  4.8164434363503146e+00  4.8164442685945232e+00  4.8164207873717961e+00  4.8163402829371416e+00  4.8162985982833861e+00  4.9797078029796156e+00  4.9800678585865086e+00  4.9798485025981831e+00  4.9797713727335520e+00  4.9798589455185365e+00  4.9799228157204460e+00  4.9796768261468269e+00  4.9797623919055942e+00  4.9798051331411317e+00  4.9799906585355993e+00  4.9798472324750032e+00  4.9797971285309703e+00  4.9801747657486217e+00  4.9795765765465809e+00  4.9795432788684506e+00  4.9798891523560984e+00  4.9793666676151922e+00  4.9793935630672159e+00  4.9795417761693193e+00  1.0000000000000000e+00  1.0000000000000000e+00  1.0000000000000000e+00  1.0000000000000000e+00  1.0000000000000000e+00  1.0000000000000000e+00  1.0000000000000000e+00  1.0000000000000000e+00  1.0000000000000000e+00  1.0000000000000000e+00  1.0000000000000000e+00  1.0000000000000000e+00  1.0000000000000000e+00  1.0000000000000000e+00  1.0000000000000000e+00  1.0000000000000000e+00  1.0000000000000000e+00  1.0000000000000000e+00  1.0000000000000000e+00  1.0000000000000000e+00  1.0000000000000000e+00  1.0000000000000000e+00  1.0000000000000000e+00  1.0000000000000000e+00  1.0000000000000000e+00  1.0000000000000000e+00  1.0000000000000000e+00  1.0000000000000000e+00  1.0000000000000000e+00  1.0000000000000000e+00  1.0000000000000000e+00  1.0000000000000000e+00  1.0000000000000000e+00  1.0000000000000000e+00  1.0000000000000000e+00  1.0000000000000000e+00  1.0000000000000000e+00  1.0000000000000000e+00  3.4150209437331678e+00  3.4151619731262044e+00  3.4148238172987946e+00  3.4151414689521538e+00  3.4162179645613291e+00  3.4150939412071106e+00  3.4145171875611466e+00  3.4150353156150262e+00  3.4146620341809868e+00  3.4147463930644903e+00  3.4145622265464382e+00  3.4140811539209102e+00  3.4140510608881360e+00  3.4146802477166851e+00  3.4148039344535701e+00  3.4140900837707013e+00  3.4145287975079235e+00  3.4150969024482900e+00  3.4144229591611901e+00  4.4218479716111529e+00  4.4218537680167094e+00  4.4218471528843715e+00  4.4218513363945782e+00  4.4218543668560342e+00  4.4218578524434911e+00  4.4218564780577196e+00  4.4218521330226235e+00  4.4218495230883690e+00  4.4218494780107571e+00  4.4218480971714138e+00  4.4218494487553182e+00  4.4218458210473912e+00  4.4218439949897927e+00  4.4218508382659252e+00  4.4218427845759578e+00  4.4218482325727679e+00  4.4218538837012940e+00  4.4218530742541979e+00  4.4218613502363864e+00  4.4218507354451493e+00  4.4218515672354997e+00  4.4218543111677988e+00  4.4218579134511975e+00  4.4218579669735920e+00  4.4218561260943954e+00  4.4218596952137528e+00  4.4218509559924737e+00  4.4218536197223104e+00  4.4218587230917619e+00  4.4218509911350523e+00  4.4218506481783102e+00  4.4218467874303142e+00  4.4218501776972463e+00  4.4218455349340102e+00  4.4218479317255053e+00  4.4218550828665037e+00  4.4218595421424505e+00  4.4220535964964993e+00  4.4220668061398953e+00  4.4220554754683237e+00  4.4220678373670186e+00  4.4220628846499208e+00  4.4220554733563677e+00  4.4220621799268303e+00  4.4220532653474205e+00  4.4220578718983701e+00  4.4220553360425914e+00  4.4220515801820923e+00  4.4220598073518911e+00  4.4220529380428486e+00  4.4220500854899587e+00  4.4220538715245761e+00  4.4220565362632671e+00  4.4220470922848865e+00  4.4220585587065386e+00  4.4220556628496928e+00  4.4220590105517790e+00  4.4220627174457139e+00  4.4220650128478054e+00  4.4220694254578001e+00  4.4220675427148040e+00  4.4220692722639443e+00  4.4220649031286188e+00  4.4220901402153352e+00  4.4220644195185406e+00  4.4220652595727445e+00  4.4220588076675398e+00  4.4220635153227512e+00  4.4220591962380755e+00  4.4220543780894817e+00  4.4220629386580157e+00  4.4220600166878352e+00  4.4220670345887054e+00  4.4220678855547861e+00  4.4220671112791470e+00  4.8162169680179403e+00  4.8162165918944302e+00  4.8162143924858452e+00  4.8162149075247385e+00  4.8162195529163272e+00  4.8162202057381602e+00  4.8162241245885697e+00  4.8162268421904670e+00  4.8162221952663691e+00  4.8162220448113215e+00  4.8162291632157048e+00  4.8162354174520212e+00  4.8162402797918986e+00  4.8162494506835118e+00  4.8162524096724137e+00  4.8162582611770377e+00  4.8162630785624172e+00  4.8162677160798735e+00  4.8162737701909144e+00  4.8163209220164918e+00  4.8163210422788083e+00  4.8163202543558352e+00  4.8163190034141135e+00  4.8163281860135028e+00  4.8163239055100524e+00  4.8163281299486851e+00  4.8163206275839459e+00  4.8163211143373497e+00  4.8163336147455782e+00  4.8163439243149160e+00  4.8163433131559836e+00  4.8163447355421933e+00  4.8163477090003397e+00  4.8163577380903799e+00  4.8163671745353112e+00  4.8163698059730775e+00  4.8163765035691553e+00  4.8163744673683375e+00  4.8164051892109514e+00  4.8164076838273084e+00  4.8164065441022004e+00  4.8164078647370880e+00  4.8164094653154983e+00  4.8164093185585495e+00  4.8164096806612964e+00  4.8164139662059071e+00  4.8164158442850269e+00  4.8164202620605936e+00  4.8164219377348072e+00  4.8164260812820388e+00  4.8164312432051721e+00  4.8164383834549094e+00  4.8164450153139819e+00  4.8164532035114727e+00  4.8164662899589539e+00  4.8164697833252843e+00  4.8164625796851377e+00  4.8163289144691914e+00  4.8163328266911583e+00  4.8163335569695134e+00  4.8163307571054439e+00  4.8163328250284136e+00  4.8163293002491949e+00  4.8163347360484146e+00  4.8163334710701644e+00  4.8163362276389750e+00  4.8163454009878466e+00  4.8163482654865426e+00  4.8163532188240268e+00  4.8163588192605848e+00  4.8163649136499842e+00  4.8163647611773204e+00  4.8163703320496341e+00  4.8163814699989578e+00  4.8163829238381419e+00  4.8163828812329754e+00  1.0000000000000000e+00  1.0000000000000000e+00  1.0000000000000000e+00  1.0000000000000000e+00  1.0000000000000000e+00  1.0000000000000000e+00  1.0000000000000000e+00  1.0000000000000000e+00  1.0000000000000000e+00  1.2477893054283591e+00  1.4862856040897889e+00  1.7049562533859557e+00  1.9009136759026162e+00  2.0676295571803474e+00  2.2075658326980037e+00  2.3287248521954820e+00  2.4389755035409668e+00  2.5385277049845576e+00  2.6313814443817103e+00  2.7153909220707120e+00  2.7911056706232511e+00  2.8587395182677144e+00  2.9167173212558177e+00  2.9661939099879380e+00  3.0070996084107491e+00  3.0379906813073960e+00  3.0611135115755594e+00  3.0749846033590553e+00  3.0826712175354163e+00  3.0931802108460009e+00  3.1103577396657229e+00  3.1350430980006476e+00  3.1664039176491587e+00  3.2046600651520194e+00  3.2491469118380065e+00  3.2994436247364933e+00  3.3550472142880823e+00  2.2634216552437754e+00  2.2632215554369948e+00  2.2632931430178886e+00  2.2635528545300296e+00  2.2641320047801168e+00  2.2642681383711949e+00  2.2641618192419961e+00  2.2639620615021552e+00  1.0000000000000000e+00  1.0000000000000000e+00  1.0000000000000000e+00  1.0000000000000000e+00  1.0000000000000000e+00  1.0000000000000000e+00  1.0000000000000000e+00  1.0000000000000000e+00  1.0000000000000000e+00  1.0000000000000000e+00  1.0000000000000000e+00  1.0000000000000000e+00  1.0000000000000000e+00  1.0000000000000000e+00  1.0000000000000000e+00  1.0000000000000000e+00  1.0000000000000000e+00  1.0000000000000000e+00  1.0000000000000000e+00  3.0786161627998254e+00  3.0788929265906102e+00  3.0785197889683085e+00  3.0787722312704262e+00  3.0789321390083368e+00  3.0790313735923318e+00  3.0787034438866856e+00  3.0787509296401243e+00  3.0789372586232728e+00  3.0788685205669957e+00  3.0785523835863247e+00  3.0791721842718269e+00  3.0790758358264316e+00  3.0793677175989269e+00  3.0790569417272806e+00  3.0794717040327537e+00  3.0784430512429477e+00  3.0790666303799767e+00  3.0793541615959197e+00  2.2636696566113854e+00  2.2636600313463431e+00  2.2636722063058263e+00  2.2637232413597173e+00  2.2636813125954189e+00  2.2636940210266405e+00  2.2636864627264743e+00  2.2636376593227592e+00  2.2637019080375667e+00  2.2636731040351292e+00  2.2636701389947382e+00  2.2637004667012457e+00  2.2636614960050849e+00  2.2636406673126190e+00  2.2636372215345375e+00  2.2637190309404569e+00  2.2636481467188494e+00  2.2636920574832713e+00  2.2636956554286893e+00  2.2631280575459578e+00  2.2631075726309242e+00  2.2630948152348296e+00  2.2631089522118848e+00  2.2631217281112086e+00  2.2631201844375934e+00  2.2630756778935015e+00  2.2631167267236183e+00  2.2630851439348736e+00  2.2630781092004915e+00  2.2630898124748935e+00  2.2630951859748754e+00  2.2630597768561116e+00  2.2630774941949396e+00  2.2630662765274607e+00  2.2630841448333823e+00  2.2630943153035155e+00  2.2631192999203242e+00  2.2631179395234318e+00  2.2638770577004625e+00  2.2638575617691150e+00  2.2638521525772743e+00  2.2638659863194923e+00  2.2638922978371681e+00  2.2638618550926952e+00  2.2638733067996366e+00  2.2638621675481798e+00  2.2638549487217463e+00  2.2638622018913308e+00  2.2638672196357796e+00  2.2638664234867303e+00  2.2638272388514165e+00  2.2638729250087097e+00  2.2638565576645266e+00  2.2638786962233226e+00  2.2638575312063534e+00  2.2638619718024211e+00  2.2638846837343332e+00  2.2642941464827264e+00  2.2642996028321534e+00  2.2643064457604121e+00  2.2643028614584324e+00  2.2642939385421790e+00  2.2642985599226448e+00  2.2642873079053683e+00  2.2642917497297859e+00  2.2642751964207841e+00  2.2642816702395603e+00  2.2642823921175994e+00  2.2642879249481753e+00  2.2642745464286707e+00  2.2642726201551615e+00  2.2642822763215351e+00  2.2642858578244787e+00  2.2642919908116270e+00  2.2643075586168546e+00  2.2642976386365947e+00  2.2636864883808934e+00  2.2639567147336646e+00  2.2640966492106993e+00  2.2635165481873001e+00  2.2641769734165300e+00  2.2640184660558687e+00  2.2638712859843015e+00  2.2639401511784438e+00  2.2638078961306674e+00  2.2636781411578459e+00  2.2636655626501638e+00  2.2634550329940843e+00  2.2641211547818085e+00  4.4219556709911583e+00  4.4220352601136925e+00  4.4220586998726095e+00  4.4219305745244206e+00  4.4220720184627069e