<?xml version="1.0"?>
<VTKFile type="UnstructuredGrid"  version="0.1"  >
<UnstructuredGrid>
<Piece  NumberOfPoints="121" NumberOfCells="100">
<Points>
<DataArray  type="Float64"  NumberOfComponents="3"  format="ascii">0 0 0  0.1 0 0  0.2 0 0  0.3 0 0  0.4 0 0  0.5 0 0  0.6 0 0  0.7 0 0  0.8 0 0  0.9 0 0  1 0 0  0 0.1 0  0.1 0.1 0  0.2 0.1 0  0.3 0.1 0  0.4 0.1 0  0.5 0.1 0  0.6 0.1 0  0.7 0.1 0  0.8 0.1 0  0.9 0.1 0  1 0.1 0  0 0.2 0  0.1 0.2 0  0.2 0.2 0  0.3 0.2 0  0.4 0.2 0  0.5 0.2 0  0.6 0.2 0  0.7 0.2 0  0.8 0.2 0  0.9 0.2 0  1 0.2 0  0 0.3 0  0.1 0.3 0  0.2 0.3 0  0.3 0.3 0  0.4 0.3 0  0.5 0.3 0  0.6 0.3 0  0.7 0.3 0  0.8 0.3 0  0.9 0.3 0  1 0.3 0  0 0.4 0  0.1 0.4 0  0.2 0.4 0  0.3 0.4 0  0.4 0.4 0  0.5 0.4 0  0.6 0.4 0  0.7 0.4 0  0.8 0.4 0  0.9 0.4 0  1 0.4 0  0 0.5 0  0.1 0.5 0  0.2 0.5 0  0.3 0.5 0  0.4 0.5 0  0.5 0.5 0  0.6 0.5 0  0.7 0.5 0  0.8 0.5 0  0.9 0.5 0  1 0.5 0  0 0.6 0  0.1 0.6 0  0.2 0.6 0  0.3 0.6 0  0.4 0.6 0  0.5 0.6 0  0.6 0.6 0  0.7 0.6 0  0.8 0.6 0  0.9 0.6 0  1 0.6 0  0 0.7 0  0.1 0.7 0  0.2 0.7 0  0.3 0.7 0  0.4 0.7 0  0.5 0.7 0  0.6 0.7 0  0.7 0.7 0  0.8 0.7 0  0.9 0.7 0  1 0.7 0  0 0.8 0  0.1 0.8 0  0.2 0.8 0  0.3 0.8 0  0.4 0.8 0  0.5 0.8 0  0.6 0.8 0  0.7 0.8 0  0.8 0.8 0  0.9 0.8 0  1 0.8 0  0 0.9 0  0.1 0.9 0  0.2 0.9 0  0.3 0.9 0  0.4 0.9 0  0.5 0.9 0  0.6 0.9 0  0.7 0.9 0  0.8 0.9 0  0.9 0.9 0  1 0.9 0  0 1 0  0.1 1 0  0.2 1 0  0.3 1 0  0.4 1 0  0.5 1 0  0.6 1 0  0.7 1 0  0.8 1 0  0.9 1 0  1 1 0  </DataArray>
</Points>
<Cells>
<DataArray  type="UInt32"  Name="connectivity"  format="ascii">0 1 12 11  1 2 13 12  2 3 14 13  3 4 15 14  4 5 16 15  5 6 17 16  6 7 18 17  7 8 19 18  8 9 20 19  9 10 21 20  11 12 23 22  12 13 24 23  13 14 25 24  14 15 26 25  15 16 27 26  16 17 28 27  17 18 29 28  18 19 30 29  19 20 31 30  20 21 32 31  22 23 34 33  23 24 35 34  24 25 36 35  25 26 37 36  26 27 38 37  27 28 39 38  28 29 40 39  29 30 41 40  30 31 42 41  31 32 43 42  33 34 45 44  34 35 46 45  35 36 47 46  36 37 48 47  37 38 49 48  38 39 50 49  39 40 51 50  40 41 52 51  41 42 53 52  42 43 54 53  44 45 56 55  45 46 57 56  46 47 58 57  47 48 59 58  48 49 60 59  49 50 61 60  50 51 62 61  51 52 63 62  52 53 64 63  53 54 65 64  55 56 67 66  56 57 68 67  57 58 69 68  58 59 70 69  59 60 71 70  60 61 72 71  61 62 73 72  62 63 74 73  63 64 75 74  64 65 76 75  66 67 78 77  67 68 79 78  68 69 80 79  69 70 81 80  70 71 82 81  71 72 83 82  72 73 84 83  73 74 85 84  74 75 86 85  75 76 87 86  77 78 89 88  78 79 90 89  79 80 91 90  80 81 92 91  81 82 93 92  82 83 94 93  83 84 95 94  84 85 96 95  85 86 97 96  86 87 98 97  88 89 100 99  89 90 101 100  90 91 102 101  91 92 103 102  92 93 104 103  93 94 105 104  94 95 106 105  95 96 107 106  96 97 108 107  97 98 109 108  99 100 111 110  100 101 112 111  101 102 113 112  102 103 114 113  103 104 115 114  104 105 116 115  105 106 117 116  106 107 118 117  107 108 119 118  108 109 120 119  </DataArray>
<DataArray  type="UInt32"  Name="offsets"  format="ascii">4 8 12 16 20 24 28 32 36 40 44 48 52 56 60 64 68 72 76 80 84 88 92 96 100 104 108 112 116 120 124 128 132 136 140 144 148 152 156 160 164 168 172 176 180 184 188 192 196 200 204 208 212 216 220 224 228 232 236 240 244 248 252 256 260 264 268 272 276 280 284 288 292 296 300 304 308 312 316 320 324 328 332 336 340 344 348 352 356 360 364 368 372 376 380 384 388 392 396 400 </DataArray>
<DataArray  type="UInt8"  Name="types"  format="ascii">9 9 9 9 9 9 9 9 9 9 9 9 9 9 9 9 9 9 9 9 9 9 9 9 9 9 9 9 9 9 9 9 9 9 9 9 9 9 9 9 9 9 9 9 9 9 9 9 9 9 9 9 9 9 9 9 9 9 9 9 9 9 9 9 9 9 9 9 9 9 9 9 9 9 9 9 9 9 9 9 9 9 9 9 9 9 9 9 9 9 9 9 9 9 9 9 9 9 9 9 </DataArray>
</Cells>
<CellData  Scalars="f_11"> 
<DataArray  type="Float64"  Name="f_11"  format="ascii">3.4014545095933083e-17   -2.2086431799345542e-18   -2.5328525661034328e-17   3.2184792030338742e-17   2.5436517118795200e-18   1.8473288809075073e-17   3.1521104773635218e-18   8.2082958568282772e-19   -4.6182502094148355e-18   -1.1151622770644153e-17   3.1686131993494664e-18   -6.2324596889869682e-18   2.9312012983875265e-17   6.5333175986529145e-18   6.2383222227095544e-17   -5.8642253810059891e-19   3.0277191228201190e-18   1.6564252902467850e-18   -3.8812916054360099e-18   3.9969944720453980e-18   4.9830792577343812e-18   -3.1878071258261333e-19   -2.7605178679556813e-18   7.0773195275196983e-18   -4.3199801932730446e-17   -9.6838818504101763e-18   -7.6120413210051447e-18   -5.2994013821280135e-18   1.5002757683669822e-17   -5.4328305695819159e-18   1.3994954619352789e-17   5.3225774900463872e-18   5.3812593940453991e-18   3.1244342128368531e-17   -1.7878261500226148e-17   -1.1325195340044449e-18   -3.0409984799451750e-17   -5.6274997042733418e-18   -9.2855145511306396e-20   -7.9415236731521266e-18   -3.1414880409663503e-17   1.3026728268365877e-17   1.0165483388024373e-17   -2.0483907065640383e-18   1.7902661325012109e-17   -1.3805501960252109e-17   2.5102389966634051e-17   -4.9012847196726520e-18   1.0381528946931645e-18   -5.6949474487364431e-19   -7.3011748020986257e-17   4.6530706452638470e-18   -1.3302587435616677e-18   2.8817954825308548e-19   1.6936157398864103e-18   6.3338165782351337e-18   1.1113466674959572e-17   2.8561144405019633e-17   -9.3178597011046288e-18   6.9434153472170257e-18   -1.3766718946712715e-17   -5.7599859036330725e-17   -1.2645250803110153e-17   -4.1683995120084652e-19   -1.7549460668776139e-17   -3.8235502509789341e-17   -1.0102981238137864e-17   -2.5656529853014222e-17   1.4203560944038401e-17   7.7922757505781908e-18   -9.6149380124944254e-18   -9.4733774017245040e-19   2.1590913717146789e-17   4.0601268636588929e-18   1.5498695225390913e-17   5.5637064795928403e-17   -1.0875970932419636e-17   -1.0908239639880947e-18   3.7670073491961450e-18   1.2949384210925538e-17   9.6623836628159349e-19   2.3427051148978251e-17   -1.2678510380514642e-17   2.9027362700548753e-18   -1.4025980887349628e-17   -1.3061316458010907e-17   1.4933222960046322e-18   1.6644240847703093e-17   -1.6925376149562666e-18   2.7858140663504597e-18   -1.2844177097625455e-17   4.0748447054984522e-18   -1.5264156802845341e-18   -1.6848022587273507e-17   -3.6738672091292825e-18   6.2476721054073146e-18   8.2194398780782746e-18   -1.8829552783711701e-17   -4.5992706556069277e-18   -3.5521225629779658e-18   </DataArray> 
</CellData> 
</Piece>
</UnstructuredGrid>
</VTKFile>