<?xml version="1.0"?>
<VTKFile type="UnstructuredGrid"  version="0.1"  >
<UnstructuredGrid>
<Piece  NumberOfPoints="10201" NumberOfCells="10000">
<Points>
<DataArray  type="Float64"  NumberOfComponents="3"  format="ascii">0 0 0  0.01 0 0  0.02 0 0  0.03 0 0  0.04 0 0  0.05 0 0  0.06 0 0  0.07000000000000001 0 0  0.08 0 0  0.09 0 0  0.1 0 0  0.11 0 0  0.12 0 0  0.13 0 0  0.14 0 0  0.15 0 0  0.16 0 0  0.17 0 0  0.18 0 0  0.19 0 0  0.2 0 0  0.21 0 0  0.22 0 0  0.23 0 0  0.24 0 0  0.25 0 0  0.26 0 0  0.27 0 0  0.28 0 0  0.29 0 0  0.3 0 0  0.31 0 0  0.32 0 0  0.33 0 0  0.34 0 0  0.35 0 0  0.36 0 0  0.37 0 0  0.38 0 0  0.39 0 0  0.4 0 0  0.41 0 0  0.42 0 0  0.43 0 0  0.44 0 0  0.45 0 0  0.46 0 0  0.47 0 0  0.48 0 0  0.49 0 0  0.5 0 0  0.51 0 0  0.52 0 0  0.53 0 0  0.54 0 0  0.55 0 0  0.5600000000000001 0 0  0.57 0 0  0.58 0 0  0.59 0 0  0.6 0 0  0.61 0 0  0.62 0 0  0.63 0 0  0.64 0 0  0.65 0 0  0.66 0 0  0.67 0 0  0.68 0 0  0.6899999999999999 0 0  0.7 0 0  0.71 0 0  0.72 0 0  0.73 0 0  0.74 0 0  0.75 0 0  0.76 0 0  0.77 0 0  0.78 0 0  0.79 0 0  0.8 0 0  0.8100000000000001 0 0  0.82 0 0  0.83 0 0  0.84 0 0  0.85 0 0  0.86 0 0  0.87 0 0  0.88 0 0  0.89 0 0  0.9 0 0  0.91 0 0  0.92 0 0  0.93 0 0  0.9399999999999999 0 0  0.95 0 0  0.96 0 0  0.97 0 0  0.98 0 0  0.99 0 0  1 0 0  0 0.01 0  0.01 0.01 0  0.02 0.01 0  0.03 0.01 0  0.04 0.01 0  0.05 0.01 0  0.06 0.01 0  0.07000000000000001 0.01 0  0.08 0.01 0  0.09 0.01 0  0.1 0.01 0  0.11 0.01 0  0.12 0.01 0  0.13 0.01 0  0.14 0.01 0  0.15 0.01 0  0.16 0.01 0  0.17 0.01 0  0.18 0.01 0  0.19 0.01 0  0.2 0.01 0  0.21 0.01 0  0.22 0.01 0  0.23 0.01 0  0.24 0.01 0  0.25 0.01 0  0.26 0.01 0  0.27 0.01 0  0.28 0.01 0  0.29 0.01 0  0.3 0.01 0  0.31 0.01 0  0.32 0.01 0  0.33 0.01 0  0.34 0.01 0  0.35 0.01 0  0.36 0.01 0  0.37 0.01 0  0.38 0.01 0  0.39 0.01 0  0.4 0.01 0  0.41 0.01 0  0.42 0.01 0  0.43 0.01 0  0.44 0.01 0  0.45 0.01 0  0.46 0.01 0  0.47 0.01 0  0.48 0.01 0  0.49 0.01 0  0.5 0.01 0  0.51 0.01 0  0.52 0.01 0  0.53 0.01 0  0.54 0.01 0  0.55 0.01 0  0.5600000000000001 0.01 0  0.57 0.01 0  0.58 0.01 0  0.59 0.01 0  0.6 0.01 0  0.61 0.01 0  0.62 0.01 0  0.63 0.01 0  0.64 0.01 0  0.65 0.01 0  0.66 0.01 0  0.67 0.01 0  0.68 0.01 0  0.6899999999999999 0.01 0  0.7 0.01 0  0.71 0.01 0  0.72 0.01 0  0.73 0.01 0  0.74 0.01 0  0.75 0.01 0  0.76 0.01 0  0.77 0.01 0  0.78 0.01 0  0.79 0.01 0  0.8 0.01 0  0.8100000000000001 0.01 0  0.82 0.01 0  0.83 0.01 0  0.84 0.01 0  0.85 0.01 0  0.86 0.01 0  0.87 0.01 0  0.88 0.01 0  0.89 0.01 0  0.9 0.01 0  0.91 0.01 0  0.92 0.01 0  0.93 0.01 0  0.9399999999999999 0.01 0  0.95 0.01 0  0.96 0.01 0  0.97 0.01 0  0.98 0.01 0  0.99 0.01 0  1 0.01 0  0 0.02 0  0.01 0.02 0  0.02 0.02 0  0.03 0.02 0  0.04 0.02 0  0.05 0.02 0  0.06 0.02 0  0.07000000000000001 0.02 0  0.08 0.02 0  0.09 0.02 0  0.1 0.02 0  0.11 0.02 0  0.12 0.02 0  0.13 0.02 0  0.14 0.02 0  0.15 0.02 0  0.16 0.02 0  0.17 0.02 0  0.18 0.02 0  0.19 0.02 0  0.2 0.02 0  0.21 0.02 0  0.22 0.02 0  0.23 0.02 0  0.24 0.02 0  0.25 0.02 0  0.26 0.02 0  0.27 0.02 0  0.28 0.02 0  0.29 0.02 0  0.3 0.02 0  0.31 0.02 0  0.32 0.02 0  0.33 0.02 0  0.34 0.02 0  0.35 0.02 0  0.36 0.02 0  0.37 0.02 0  0.38 0.02 0  0.39 0.02 0  0.4 0.02 0  0.41 0.02 0  0.42 0.02 0  0.43 0.02 0  0.44 0.02 0  0.45 0.02 0  0.46 0.02 0  0.47 0.02 0  0.48 0.02 0  0.49 0.02 0  0.5 0.02 0  0.51 0.02 0  0.52 0.02 0  0.53 0.02 0  0.54 0.02 0  0.55 0.02 0  0.5600000000000001 0.02 0  0.57 0.02 0  0.58 0.02 0  0.59 0.02 0  0.6 0.02 0  0.61 0.02 0  0.62 0.02 0  0.63 0.02 0  0.64 0.02 0  0.65 0.02 0  0.66 0.02 0  0.67 0.02 0  0.68 0.02 0  0.6899999999999999 0.02 0  0.7 0.02 0  0.71 0.02 0  0.72 0.02 0  0.73 0.02 0  0.74 0.02 0  0.75 0.02 0  0.76 0.02 0  0.77 0.02 0  0.78 0.02 0  0.79 0.02 0  0.8 0.02 0  0.8100000000000001 0.02 0  0.82 0.02 0  0.83 0.02 0  0.84 0.02 0  0.85 0.02 0  0.86 0.02 0  0.87 0.02 0  0.88 0.02 0  0.89 0.02 0  0.9 0.02 0  0.91 0.02 0  0.92 0.02 0  0.93 0.02 0  0.9399999999999999 0.02 0  0.95 0.02 0  0.96 0.02 0  0.97 0.02 0  0.98 0.02 0  0.99 0.02 0  1 0.02 0  0 0.03 0  0.01 0.03 0  0.02 0.03 0  0.03 0.03 0  0.04 0.03 0  0.05 0.03 0  0.06 0.03 0  0.07000000000000001 0.03 0  0.08 0.03 0  0.09 0.03 0  0.1 0.03 0  0.11 0.03 0  0.12 0.03 0  0.13 0.03 0  0.14 0.03 0  0.15 0.03 0  0.16 0.03 0  0.17 0.03 0  0.18 0.03 0  0.19 0.03 0  0.2 0.03 0  0.21 0.03 0  0.22 0.03 0  0.23 0.03 0  0.24 0.03 0  0.25 0.03 0  0.26 0.03 0  0.27 0.03 0  0.28 0.03 0  0.29 0.03 0  0.3 0.03 0  0.31 0.03 0  0.32 0.03 0  0.33 0.03 0  0.34 0.03 0  0.35 0.03 0  0.36 0.03 0  0.37 0.03 0  0.38 0.03 0  0.39 0.03 0  0.4 0.03 0  0.41 0.03 0  0.42 0.03 0  0.43 0.03 0  0.44 0.03 0  0.45 0.03 0  0.46 0.03 0  0.47 0.03 0  0.48 0.03 0  0.49 0.03 0  0.5 0.03 0  0.51 0.03 0  0.52 0.03 0  0.53 0.03 0  0.54 0.03 0  0.55 0.03 0  0.5600000000000001 0.03 0  0.57 0.03 0  0.58 0.03 0  0.59 0.03 0  0.6 0.03 0  0.61 0.03 0  0.62 0.03 0  0.63 0.03 0  0.64 0.03 0  0.65 0.03 0  0.66 0.03 0  0.67 0.03 0  0.68 0.03 0  0.6899999999999999 0.03 0  0.7 0.03 0  0.71 0.03 0  0.72 0.03 0  0.73 0.03 0  0.74 0.03 0  0.75 0.03 0  0.76 0.03 0  0.77 0.03 0  0.78 0.03 0  0.79 0.03 0  0.8 0.03 0  0.8100000000000001 0.03 0  0.82 0.03 0  0.83 0.03 0  0.84 0.03 0  0.85 0.03 0  0.86 0.03 0  0.87 0.03 0  0.88 0.03 0  0.89 0.03 0  0.9 0.03 0  0.91 0.03 0  0.92 0.03 0  0.93 0.03 0  0.9399999999999999 0.03 0  0.95 0.03 0  0.96 0.03 0  0.97 0.03 0  0.98 0.03 0  0.99 0.03 0  1 0.03 0  0 0.04 0  0.01 0.04 0  0.02 0.04 0  0.03 0.04 0  0.04 0.04 0  0.05 0.04 0  0.06 0.04 0  0.07000000000000001 0.04 0  0.08 0.04 0  0.09 0.04 0  0.1 0.04 0  0.11 0.04 0  0.12 0.04 0  0.13 0.04 0  0.14 0.04 0  0.15 0.04 0  0.16 0.04 0  0.17 0.04 0  0.18 0.04 0  0.19 0.04 0  0.2 0.04 0  0.21 0.04 0  0.22 0.04 0  0.23 0.04 0  0.24 0.04 0  0.25 0.04 0  0.26 0.04 0  0.27 0.04 0  0.28 0.04 0  0.29 0.04 0  0.3 0.04 0  0.31 0.04 0  0.32 0.04 0  0.33 0.04 0  0.34 0.04 0  0.35 0.04 0  0.36 0.04 0  0.37 0.04 0  0.38 0.04 0  0.39 0.04 0  0.4 0.04 0  0.41 0.04 0  0.42 0.04 0  0.43 0.04 0  0.44 0.04 0  0.45 0.04 0  0.46 0.04 0  0.47 0.04 0  0.48 0.04 0  0.49 0.04 0  0.5 0.04 0  0.51 0.04 0  0.52 0.04 0  0.53 0.04 0  0.54 0.04 0  0.55 0.04 0  0.5600000000000001 0.04 0  0.57 0.04 0  0.58 0.04 0  0.59 0.04 0  0.6 0.04 0  0.61 0.04 0  0.62 0.04 0  0.63 0.04 0  0.64 0.04 0  0.65 0.04 0  0.66 0.04 0  0.67 0.04 0  0.68 0.04 0  0.6899999999999999 0.04 0  0.7 0.04 0  0.71 0.04 0  0.72 0.04 0  0.73 0.04 0  0.74 0.04 0  0.75 0.04 0  0.76 0.04 0  0.77 0.04 0  0.78 0.04 0  0.79 0.04 0  0.8 0.04 0  0.8100000000000001 0.04 0  0.82 0.04 0  0.83 0.04 0  0.84 0.04 0  0.85 0.04 0  0.86 0.04 0  0.87 0.04 0  0.88 0.04 0  0.89 0.04 0  0.9 0.04 0  0.91 0.04 0  0.92 0.04 0  0.93 0.04 0  0.9399999999999999 0.04 0  0.95 0.04 0  0.96 0.04 0  0.97 0.04 0  0.98 0.04 0  0.99 0.04 0  1 0.04 0  0 0.05 0  0.01 0.05 0  0.02 0.05 0  0.03 0.05 0  0.04 0.05 0  0.05 0.05 0  0.06 0.05 0  0.07000000000000001 0.05 0  0.08 0.05 0  0.09 0.05 0  0.1 0.05 0  0.11 0.05 0  0.12 0.05 0  0.13 0.05 0  0.14 0.05 0  0.15 0.05 0  0.16 0.05 0  0.17 0.05 0  0.18 0.05 0  0.19 0.05 0  0.2 0.05 0  0.21 0.05 0  0.22 0.05 0  0.23 0.05 0  0.24 0.05 0  0.25 0.05 0  0.26 0.05 0  0.27 0.05 0  0.28 0.05 0  0.29 0.05 0  0.3 0.05 0  0.31 0.05 0  0.32 0.05 0  0.33 0.05 0  0.34 0.05 0  0.35 0.05 0  0.36 0.05 0  0.37 0.05 0  0.38 0.05 0  0.39 0.05 0  0.4 0.05 0  0.41 0.05 0  0.42 0.05 0  0.43 0.05 0  0.44 0.05 0  0.45 0.05 0  0.46 0.05 0  0.47 0.05 0  0.48 0.05 0  0.49 0.05 0  0.5 0.05 0  0.51 0.05 0  0.52 0.05 0  0.53 0.05 0  0.54 0.05 0  0.55 0.05 0  0.5600000000000001 0.05 0  0.57 0.05 0  0.58 0.05 0  0.59 0.05 0  0.6 0.05 0  0.61 0.05 0  0.62 0.05 0  0.63 0.05 0  0.64 0.05 0  0.65 0.05 0  0.66 0.05 0  0.67 0.05 0  0.68 0.05 0  0.6899999999999999 0.05 0  0.7 0.05 0  0.71 0.05 0  0.72 0.05 0  0.73 0.05 0  0.74 0.05 0  0.75 0.05 0  0.76 0.05 0  0.77 0.05 0  0.78 0.05 0  0.79 0.05 0  0.8 0.05 0  0.8100000000000001 0.05 0  0.82 0.05 0  0.83 0.05 0  0.84 0.05 0  0.85 0.05 0  0.86 0.05 0  0.87 0.05 0  0.88 0.05 0  0.89 0.05 0  0.9 0.05 0  0.91 0.05 0  0.92 0.05 0  0.93 0.05 0  0.9399999999999999 0.05 0  0.95 0.05 0  0.96 0.05 0  0.97 0.05 0  0.98 0.05 0  0.99 0.05 0  1 0.05 0  0 0.06 0  0.01 0.06 0  0.02 0.06 0  0.03 0.06 0  0.04 0.06 0  0.05 0.06 0  0.06 0.06 0  0.07000000000000001 0.06 0  0.08 0.06 0  0.09 0.06 0  0.1 0.06 0  0.11 0.06 0  0.12 0.06 0  0.13 0.06 0  0.14 0.06 0  0.15 0.06 0  0.16 0.06 0  0.17 0.06 0  0.18 0.06 0  0.19 0.06 0  0.2 0.06 0  0.21 0.06 0  0.22 0.06 0  0.23 0.06 0  0.24 0.06 0  0.25 0.06 0  0.26 0.06 0  0.27 0.06 0  0.28 0.06 0  0.29 0.06 0  0.3 0.06 0  0.31 0.06 0  0.32 0.06 0  0.33 0.06 0  0.34 0.06 0  0.35 0.06 0  0.36 0.06 0  0.37 0.06 0  0.38 0.06 0  0.39 0.06 0  0.4 0.06 0  0.41 0.06 0  0.42 0.06 0  0.43 0.06 0  0.44 0.06 0  0.45 0.06 0  0.46 0.06 0  0.47 0.06 0  0.48 0.06 0  0.49 0.06 0  0.5 0.06 0  0.51 0.06 0  0.52 0.06 0  0.53 0.06 0  0.54 0.06 0  0.55 0.06 0  0.5600000000000001 0.06 0  0.57 0.06 0  0.58 0.06 0  0.59 0.06 0  0.6 0.06 0  0.61 0.06 0  0.62 0.06 0  0.63 0.06 0  0.64 0.06 0  0.65 0.06 0  0.66 0.06 0  0.67 0.06 0  0.68 0.06 0  0.6899999999999999 0.06 0  0.7 0.06 0  0.71 0.06 0  0.72 0.06 0  0.73 0.06 0  0.74 0.06 0  0.75 0.06 0  0.76 0.06 0  0.77 0.06 0  0.78 0.06 0  0.79 0.06 0  0.8 0.06 0  0.8100000000000001 0.06 0  0.82 0.06 0  0.83 0.06 0  0.84 0.06 0  0.85 0.06 0  0.86 0.06 0  0.87 0.06 0  0.88 0.06 0  0.89 0.06 0  0.9 0.06 0  0.91 0.06 0  0.92 0.06 0  0.93 0.06 0  0.9399999999999999 0.06 0  0.95 0.06 0  0.96 0.06 0  0.97 0.06 0  0.98 0.06 0  0.99 0.06 0  1 0.06 0  0 0.07000000000000001 0  0.01 0.07000000000000001 0  0.02 0.07000000000000001 0  0.03 0.07000000000000001 0  0.04 0.07000000000000001 0  0.05 0.07000000000000001 0  0.06 0.07000000000000001 0  0.07000000000000001 0.07000000000000001 0  0.08 0.07000000000000001 0  0.09 0.07000000000000001 0  0.1 0.07000000000000001 0  0.11 0.07000000000000001 0  0.12 0.07000000000000001 0  0.13 0.07000000000000001 0  0.14 0.07000000000000001 0  0.15 0.07000000000000001 0  0.16 0.07000000000000001 0  0.17 0.0700
[...]
<PointData  Scalars="f_16"> 
<DataArray  type="Float64"  Name="f_16"  format="ascii">9.9999999999999995e-07  9.9999999999999995e-07  9.9999999999999995e-07  9.9999999999999995e-07  9.9999999999999995e-07  9.9999999999999995e-07  9.9999999999999995e-07  9.9999999999999995e-07  9.9999999999999995e-07  9.9999999999999995e-07  9.9999999999999995e-07  9.9999999999999995e-07  9.9999999999999995e-07  9.9999999999999995e-07  9.9999999999999995e-07  9.9999999999999995e-07  9.9999999999999995e-07  9.9999999999999995e-07  9.9999999999999995e-07  9.9999999999999995e-07  9.9999999999999995e-07  9.9999999999999995e-07  9.9999999999999995e-07  9.9999999999999995e-07  9.9999999999999995e-07  9.9999999999999995e-07  9.9999999999999995e-07  9.9999999999999995e-07  9.9999999999999995e-07  9.9999999999999995e-07  9.9999999999999995e-07  9.9999999999999995e-07  9.9999999999999995e-07  9.9999999999999995e-07  9.9999999999999995e-07  9.9999999999999995e-07  9.9999999999999995e-07  9.9999999999999995e-07  9.9999999999999995e-07  9.9999999999999995e-07  9.9999999999999995e-07  9.9999999999999995e-07  9.9999999999999995e-07  9.9999999999999995e-07  9.9999999999999995e-07  9.9999999999999995e-07  9.9999999999999995e-07  9.9999999999999995e-07  9.9999999999999995e-07  9.9999999999999995e-07  9.9999999999999995e-07  9.9999999999999995e-07  9.9999999999999995e-07  9.9999999999999995e-07  9.9999999999999995e-07  9.9999999999999995e-07  9.9999999999999995e-07  9.9999999999999995e-07  9.9999999999999995e-07  9.9999999999999995e-07  9.9999999999999995e-07  9.9999999999999995e-07  9.9999999999999995e-07  9.9999999999999995e-07  9.9999999999999995e-07  9.9999999999999995e-07  9.9999999999999995e-07  9.9999999999999995e-07  9.9999999999999995e-07  9.9999999999999995e-07  9.9999999999999995e-07  9.9999999999999995e-07  9.9999999999999995e-07  9.9999999999999995e-07  9.9999999999999995e-07  9.9999999999999995e-07  9.9999999999999995e-07  9.9999999999999995e-07  9.9999999999999995e-07  9.9999999999999995e-07  9.9999999999999995e-07  9.9999999999999995e-07  9.9999999999999995e-07  9.9999999999999995e-07  9.9999999999999995e-07  9.9999999999999995e-07  9.9999999999999995e-07  9.9999999999999995e-07  9.9999999999999995e-07  9.9999999999999995e-07  9.9999999999999995e-07  9.9999999999999995e-07  9.9999999999999995e-07  9.9999999999999995e-07  9.9999999999999995e-07  9.9999999999999995e-07  9.9999999999999995e-07  9.9999999999999995e-07  9.9999999999999995e-07  9.9999999999999995e-07  9.9999999999999995e-07  9.9999999999999995e-07  2.2796456103872490e+05  4.2053225177118648e+05  5.9885316008525225e+05  7.7035746273093356e+05  9.3901235465638351e+05  1.1070248716389078e+06  1.2753669971954650e+06  1.4439453824836358e+06  1.6116884376573868e+06  1.7766684912579283e+06  1.9363203621959104e+06  2.0877733090923880e+06  2.2282664110603589e+06  2.3555757823575805e+06  2.4683614640083448e+06  2.5663537715136898e+06  2.6503409440296390e+06  2.7219751365151317e+06  2.7834591747316900e+06  2.8371955233712532e+06  2.8854690729591930e+06  2.9302067038438874e+06  2.9728240527610825e+06  3.0141451949180216e+06  3.0543681708633807e+06  3.0930389095453830e+06  3.1291183861872107e+06  3.1614394679393931e+06  3.1889443821607754e+06  3.2107500973080979e+06  3.2261684151578560e+06  3.2347081520678760e+06  3.2360624684444838e+06  3.2300806066226959e+06  3.2167237299465500e+06  3.1960070036342307e+06  3.1679343541451031e+06  3.1324381072020512e+06  3.0893414384437203e+06  3.0383643825816391e+06  2.9791903139962656e+06  2.9115965042573134e+06  2.8356302263705088e+06  2.7517870959032504e+06  2.6611320810322417e+06  2.5653075529779047e+06  2.4664020812620847e+06  2.3667020406563752e+06  2.2683994369610995e+06  2.1733689737372226e+06  2.0831745522031921e+06  1.9994399070951920e+06  1.9241042411071560e+06  1.8589457239198892e+06  1.8052773032835450e+06  1.7638765545565132e+06  1.7350230524168825e+06  1.7185799541687067e+06  1.7140816539274680e+06  1.7208059690207816e+06  1.7378211032318317e+06  1.7640055990651639e+06  1.7980446076465095e+06  1.8384092522319439e+06  1.8833287628642963e+06  1.9307681554067875e+06  1.9784275503278312e+06  2.0237817647409167e+06  2.0641782902239908e+06  2.0970048957161640e+06  2.1199217549983100e+06  2.1311265459179543e+06  2.1295885987547021e+06  2.1151584787944336e+06  2.0884370905678081e+06  2.0502306949092890e+06  2.0007219130958552e+06  1.9398531611178936e+06  1.8681721954633563e+06  1.7871307286468800e+06  1.6989597339978418e+06  1.6063295335291971e+06  1.5119534639945060e+06  1.4182536987747361e+06  1.3271493605297152e+06  1.2399717036846459e+06  1.1574758904347715e+06  1.0799067359524309e+06  1.0070798450931084e+06  9.3845045336432313e+05  8.7315305744343053e+05  8.1000214664167503e+05  7.4744706904283050e+05  6.8347202589862945e+05  6.1542370774094586e+05  5.3972713440028671e+05  4.5139083811870113e+05  3.4300839160352148e+05  2.0227198716417822e+05  9.9999999999999995e-07  9.9999999999999995e-07  3.8449944855951454e+05  7.3348253119178815e+05  1.0611780965398566e+06  1.3775979873135467e+06  1.6888743471890236e+06  1.9987364015600160e+06  2.3089943423175705e+06  2.6197027713738452e+06  2.9292523748264038e+06  3.2345391461254978e+06  3.5313013996721660e+06  3.8146540128219100e+06  4.0797763284480330e+06  4.3226405971258683e+06  4.5406288245476447e+06  4.7328984262325251e+06  4.9004207437160313e+06  5.0457062908316776e+06  5.1723095720081124e+06  5.2842452639402347e+06  5.3854388933096528e+06  5.4792926415977580e+06  5.5683943000311190e+06  5.6543552686255462e+06  5.7377417688921103e+06  5.8180633493624423e+06  5.8939986476616543e+06  5.9641976865296178e+06  6.0274660011344906e+06  6.0827472508852920e+06  6.1291089014960732e+06  6.1657304712448316e+06  6.1918855301032905e+06  6.2069093768850593e+06  6.2101479736555498e+06  6.2008891416711695e+06  6.1782851073358972e+06  6.1412863520585625e+06  6.0886182026406210e+06  6.0188384851918733e+06  5.9305093262977134e+06  5.8224921572097298e+06  5.6943318028382314e+06  5.5466442845988963e+06  5.3813862670925427e+06  5.2018876193064163e+06  5.0125858156351633e+06  4.8185003513728632e+06  4.6245917342058476e+06  4.4352239344897661e+06  4.2539690150382677e+06  4.0840099242339041e+06  3.9288720454451246e+06  3.7918443183584409e+06  3.6754420926790778e+06  3.5812209753399203e+06  3.5097978713551708e+06  3.4609762192783994e+06  3.4339040846394519e+06  3.4272196695333775e+06  3.4391600206496981e+06  3.4676245959601761e+06  3.5101962582774968e+06  3.5641296250297800e+06  3.6263222672481597e+06  3.6932893446093290e+06  3.7611671563125770e+06  3.8257744516788819e+06  3.8827589600397609e+06  3.9278457573355525e+06  3.9571793133249977e+06  3.9677113549989960e+06  3.9575379408536265e+06  3.9260442747879382e+06  3.8736858873816598e+06  3.8012208808959625e+06  3.7087468301592735e+06  3.5964106339279315e+06  3.4654460144336917e+06  3.3185306940366491e+06  3.1595651923415638e+06  2.9931183747811317e+06  2.8237850704700048e+06  2.6556434624040914e+06  2.4919083674270730e+06  2.3347888387323725e+06  2.1855020484033138e+06  2.0443751448900367e+06  1.9109722673835340e+06  1.7842006768846454e+06  1.6623670573199329e+06  1.5431668768195834e+06  1.4235946187598682e+06  1.2997603280179189e+06  1.1665862233963753e+06  1.0173278937001189e+06  8.4279206071376521e+05  6.2994265006668831e+05  3.5896136760565051e+05  9.9999999999999995e-07  9.9999999999999995e-07  5.0216360965847090e+05  9.7339855035856948e+05  1.4230770314147500e+06  1.8597522628135402e+06  2.2900373379873228e+06  2.7184197064297372e+06  3.1473086615224625e+06  3.5770173981432514e+06  4.0057707297042911e+06  4.4298481664112927e+06  4.8439529574331762e+06  5.2418433679941418e+06  5.6171804233992668e+06  5.9644597888201047e+06  6.2798396059766971e+06  6.5616805356578380e+06  6.8106839149091030e+06  7.0296228606083542e+06  7.2227649942356776e+06  7.3951452558542695e+06  7.5518483864466194e+06  7.6974156694895672e+06  7.8354273747370187e+06  7.9682583283569096e+06  8.0969760313509637e+06  8.2213552418566179e+06  8.3402597779629435e+06  8.4527368865528554e+06  8.5580314011862874e+06  8.6553986755026989e+06  8.7440173470481616e+06  8.8229495346635710e+06  8.8911135851438679e+06  8.9472488142394219e+06  8.9898624709566794e+06  9.0171590117549542e+06  9.0269637046684437e+06  9.0166679671631213e+06  8.9832406113005280e+06  8.9233605023047756e+06  8.8337209457347728e+06  8.7115232006211579e+06  8.5551127840954810e+06  8.3646317609822117e+06  8.1424967196587035e+06  7.8935076729026604e+06  7.6244737679026490e+06  7.3433939400538029e+06  7.0583984210573258e+06  6.7767674855230842e+06  6.5043468560225563e+06  6.2458727480911091e+06  6.0063447823164035e+06  5.7904950809126925e+06  5.6020850143797221e+06  5.4435929995535091e+06  5.3161790951188635e+06  5.2198154795651548e+06  5.1534900185401672e+06  5.1154154793024529e+06  5.1032031031772317e+06  5.1139816616836041e+06  5.1444599797799010e+06  5.1909427482153596e+06  5.2493179637682419e+06  5.3150411589994011e+06  5.3831472814580817e+06  5.4483244459130038e+06  5.5050814902126258e+06  5.5480283541453313e+06  5.5722600434902273e+06  5.5737903075100640e+06  5.5499266618004227e+06  5.4994291217915500e+06  5.4222700103196679e+06  5.3188247305365037e+06  5.1889377802730231e+06  5.0328948302758876e+06  4.8525061308564981e+06  4.6514044886547588e+06  4.4347188068488883e+06  4.2083710522561576e+06  3.9782759005038254e+06  3.7496646702056159e+06  3.5266485123891728e+06  3.3120317030155812e+06  3.1073177576368363e+06  2.9128255584657686e+06  2.7278380474247765e+06  2.5507255654637613e+06  2.3790066263547163e+06  2.2093240337635740e+06  2.0373217583606071e+06  1.8574078583552446e+06  1.6623802131983489e+06  1.4428709420573977e+06  1.1865245071180821e+06  8.7675641441338393e+05  4.9115881161067617e+05  9.9999999999999995e-07  9.9999999999999995e-07  5.9497877530941344e+05  1.1637358654075442e+06  1.7123152690493884e+06  2.2476802088350076e+06  2.7761123041077862e+06  3.3023923265659693e+06  3.8293734994723829e+06  4.3577276571335848e+06  4.8858192321864981e+06  5.4097687459918149e+06  5.9237851088658450e+06  6.4208085055846488e+06  6.8934259447443783e+06  7.3349262408688227e+06  7.7402898780124635e+06  8.1068986054830449e+06  8.4348126095959134e+06  8.7265782808099147e+06  8.9866508839728609e+06  9.2205976358777583e+06  9.4342646047449373e+06  9.6330528090878148e+06  9.8213830276199114e+06  1.0002366894706154e+07  1.0177666448001942e+07  1.0347525302177403e+07  1.0511282327054232e+07  1.0668714495255554e+07  1.0819839436509941e+07  1.0964528557599952e+07  1.1102330448145019e+07  1.1232395579484906e+07  1.1353435360432800e+07  1.1463679353504607e+07  1.1560814720922776e+07  1.1641907370563503e+07  1.1703320256536610e+07  1.1740663895439949e+07  1.1748836021356942e+07  1.1722223747031173e+07  1.1655138518011779e+07  1.1542515403110974e+07  1.1380826175185187e+07  1.1169044389155557e+07  1.0909403038453439e+07  1.0607661055788737e+07  1.0272687930719862e+07  9.9153772496010251e+06  9.5471362612186167e+06  9.1783625799589306e+06  8.8173326010151021e+06  8.4703504907772634e+06  8.1438618682685271e+06  7.8440779134751037e+06  7.5761501499676807e+06  7.3437273926482378e+06  7.1488291650735503e+06  6.9919398588671144e+06  6.8722240136458240e+06  6.7877789110593442e+06  6.7358659871864570e+06  6.7130887261310769e+06  6.7155067559339926e+06  6.7386924552972643e+06  6.7777483542376030e+06  6.8273124546140954e+06  6.8815850666374089e+06  6.9344139592043795e+06  6.9794716038863063e+06  7.0105445098267123e+06  7.0219257697096793e+06  7.0088571516260831e+06  6.9679128528512483e+06  6.8971687254716950e+06  6.7959784273211686e+06  6.6641931378418589e+06  6.5013092444870118e+06  6.3076362144391350e+06  6.0853750252071582e+06  5.8388349128476614e+06  5.5740112693981063e+06  5.2977770237965751e+06  5.0169782333953232e+06  4.7376683338114172e+06  4.4646046487240028e+06  4.2010204573711418e+06  3.9486122341639823e+06  3.7076525368956421e+06  3.4771430788261089e+06  3.2549426986237648e+06  3.0378275906539573e+06  2.8214589305999773e+06  2.6002437196105877e+06  2.3670787183481320e+06  2.1129657132504922e+06  1.8264799415013890e+06  1.4930663024951981e+06  1.0941671968647062e+06  6.0626521890389384e+05  9.9999999999999995e-07  9.9999999999999995e-07  6.7167589290357102e+05  1.3204073532387966e+06  1.9500047928184385e+06  2.5662506503168596e+06  3.1750810842369883e+06  3.7814614010889116e+06  4.3886868960675504e+06  4.9979310835421458e+06  5.6079824233171605e+06  6.2152013013624754e+06  6.8137675682248091e+06  7.3962685893768240e+06  7.9546070192647483e+06  8.4811098303695787e+06  8.9696351106234342e+06  9.4164425435174257e+06  9.8206393929504286e+06  1.0184123757693646e+07  1.0511078109336659e+07  1.0807168097389778e+07  1.1078641800890533e+07  1.1331501721152283e+07  1.1570860306890598e+07  1.1800523344484664e+07  1.2022801507036557e+07  1.2238542750692092e+07  1.2447744014007969e+07  1.2651085551629528e+07  1.2849520009951303e+07  1.3043691310912369e+07  1.3233670727486253e+07  1.3418847763487263e+07  1.3597876813765300e+07  1.3768626897539929e+07  1.3928111631424123e+07  1.4072397604401669e+07  1.4196509028397225e+07  1.4294369790365679e+07  1.4358850665156197e+07  1.4382011851058027e+07  1.4355633027867978e+07  1.4272083949680345e+07  1.4125494202216661e+07  1.3913041539740175e+07  1.3636041463751046e+07  1.3300462216563595e+07  1.2916575752047950e+07  1.2497692446744012e+07  1.2058233576610249e+07  1.1611631884205520e+07  1.1168599806809124e+07  1.0736993885221260e+07  1.0324678135101954e+07  9.9393874821212962e+06  9.5878259835714027e+06  9.2750930328591634e+06  9.0044344047770351e+06  8.7772557164809667e+06  8.5933072227603272e+06  8.4509486822818760e+06  8.3474213532508956e+06  8.2790799903533896e+06  8.2415630441924632e+06  8.2299002127407119e+06  8.2385723180621844e+06  8.2615499262108821e+06  8.2923448376019327e+06  8.3241119406464025e+06  8.3498355598704359e+06  8.3626205536437202e+06  8.3560804426157232e+06  8.3247723096525632e+06  8.2645770890380144e+06  8.1728780133098941e+06  8.0483671956979576e+06  7.8903205336223030e+06  7.6978396529902359e+06  7.4711492209064709e+06  7.2126512745267656e+06  6.9270728814509511e+06  6.6209740641382812e+06  6.3018702177600777e+06  5.9772604898947664e+06  5.6537985559461620e+06  5.3367331526558856e+06  5.0296355993375052e+06  4.7343559916291581e+06  4.4511177658908777e+06  4.1786620260271006e+06  3.9143722944797641e+06  3.6543337700269236e+06  3.3933011720151110e+06  3.1245633757714704e+06  2.8397018554957877e+06  2.5282451885065893e+06  2.1772258787710378e+06  1.7706537326483396e+06  1.2889343548604201e+06  7.0826756267984689e+05  9.9999999999999995e-07  9.9999999999999995e-07  7.3832142938655382e+05  1.4549366471895876e+06  2.1522253802918289e+06  2.8352865476491554e+06  3.5099570140053323e+06  4.1815135550908600e+06  4.8538167009594664e+06  5.5287279424215443e+06  6.2057323268436985e+06  6.8817844639140414e+06  7.5514434942866033e+06  8.2073582933295909e+06  8.8411065512845647e+06  9.4442968798480332e+06  1.0009747324157421e+07  1.0532500556950973e+07  1.1010456794987835e+07  1.1444499635398332e+07  1.1838122851102194e+07  1.2196686295868371e+07  1.2526495090225240e+07  1.2833895668502124e+07  1.3124532138477188e+07  1.3402839445580412e+07  1.3671797197238082e+07  1.3932948469921803e+07  1.4187070792834375e+07  1.4435820479297116e+07  1.4681126594010729e+07  1.4924443517517122e+07  1.5166414312128251e+07  1.5406737506374082e+07  1.5644109840812190e+07  1.5876176707935093e+07  1.6099460085748808e+07  1.6309259365310904e+07  1.6499542822202669e+07  1.6662873099525617e+07  1.6790440422606006e+07  1.6872305855450097e+07  1.6897967101755805e+07  1.6857326720008776e+07  1.6742046112145923e+07  1.6547110645582529e+07  1.6272256705877129e+07  1.5922806609425614e+07  1.5509512634757739e+07  1.5047258410248546e+07  1.4552830027814215e+07  1.4042288035127306e+07  1.3528582486862842e+07  1.3021022853900224e+07  1.2528797699052874e+07  1.2061138382756086e+07  1.1626396530579055e+07  1.1231352913230978e+07  1.0880824270389639e+07  1.0577553386903366e+07  1.0322315460612413e+07  1.0114153884180890e+07  9.9506642601274103e+06  9.8282659210967049e+06  9.7424255914773587e+06  9.6878217174293008e+06  9.6584575355066545e+06  9.6477455212339889e+06  9.6485955097175092e+06  9.6535429512779210e+06  9.6549506170197278e+06  9.6453036880603898e+06  9.6175918697441388e+06  9.5657329170804471e+06  9.4849450172420442e+06  9.3719325572975483e+06  9.2247258299297448e+06  9.0420188526671566e+06  8.8225018150759004e+06  8.5662226881603003e+06  8.2756111398709100e+06  7.9555816839924874e+06  7.6130033756423984e+06  7.2557871890905984e+06  6.8918757266461123e+06  6.5283677025379576e+06  6.1709065570809608e+06  5.8233567552007418e+06  5.4877162370693078e+06  5.1641789387023775e+06  4.8512596519965408e+06  4.5459105492669232e+06  4.2435818761577765e+06  3.9382009910323350e+06  3.6220611848038831e+06  3.2856245962476698e+06  2.9172532180525693e+06  2.5028894834927157e+06  2.0257121235371444e+06  1.4657866156333503e+06  7.9969201276987372e+05  9.9999999999999995e-07  9.9999999999999995e-07  7.9932507648145745e+05  1.5758764666154915e+06  2.3312641236946732e+06  3.0703936536339796e+06  3.7993328637092998e+06  4.5238967460476197e+06  5.2487005059920494e+06  5.9764982926438330e+06  6.7077232141430527e+06  7.4402325361931045e+06  8.1693194684681073e+06  8.8880647143090349e+06  9.5880597815590985e+06  1.0260448151629368e+07  1.0897128409825306e+07  1.1491888253537253e+07  1.2041228655492604e+07  1.2544706411189180e+07  1.3004748264839510e+07  1.3426022877050798e+07  1.3814549776057070e+07  1.4176751989159603e+07  1.4518627491774602e+07  1.4845152365515770e+07  1.5159968952589504e+07  1.5465379184502795e+07  1.5763032931006549e+07  1.6055573874416158e+07  1.6345866567946976e+07  1.6636124541141862e+07  1.6927523693980545e+07  1.7220060447336603e+07  1.7512504806776162e+07  1.7802366734234266e+07  1.8085838218721144e+07  1.8357702063587904e+07  1.8611221839059524e+07  1.8838053607588455e+07  1.9028252227629285e+07  1.9170478850957971e+07  1.9252536309109189e+07  1.9262339525160950e+07  1.9189341501141667e+07  1.9026273334488254e+07  1.8770854085234970e+07  1.8426970395908758e+07  1.8004826596249394e+07  1.7519787946035225e+07  1.6990033352031160e+07  1.6433530410379387e+07  1.5865039730477946e+07  1.5295100941133736e+07  1.4734020543562125e+07  1.4192367750393271e+07  1.3680098113695754e+07  1.3205777758173306e+07  1.2776041640799105e+07  1.2395327155081281e+07  1.2065854175753336e+07  1.1787782845852040e+07  1.1559469513042657e+07  1.1377751166686088e+07  1.1238209771403899e+07  1.1135392022002982e+07  1.1062982212689705e+07  1.1013943638862630e+07  1.0980656137320349e+07  1.0955083098069696e+07  1.0928999036171071e+07  1.0894296496289361e+07  1.0843366935582614e+07  1.0769514713499377e+07  1.0667321008185631e+07  1.0532834941821702e+07  1.0363444529574189e+07  1.0157277769627264e+07  9.9126148947908003e+06  9.6292507793368697e+06  9.3094880312237982e+06  8.9582238642063774e+06  8.5824140644395389e+06  8.1901568388258535e+06  7.7896682638837080e+06  7.3883737401851974e+06  6.9922462035422511e+06  6.6054235229595918e+06  6.2300646607583351e+06  5.8663672935257563e+06  5.5126637956649326e+06  5.1655261504775621e+06  4.8198322161154002e+06  4.4687682709425688e+06  4.1037622653654125e+06  3.7143576675760113e+06  3.2880489730317313e+06  2.8101056408890923e+06  2.2634072913973997e+06  1.6282900701916197e+06  8.8234585622569569e+05  9.9999999999999995e-07  9.9999999999999995e-07  8.5793862955210893e+05  1.6896113104530778e+06  2.4964654048456214e+06  3.2836942537294268e+06  4.0579522754276190e+06  4.8258539601655621e+06  5.5929783625332341e+06  6.3631699067774853e+06  7.1380274466000712e+06  7.9165675024884921e+06  8.6951158449400663e+06  9.4675099758947771e+06  1.0225672920009725e+07  1.0960546620113319e+07  1.1663270977404280e+07  1.2326400720586119e+07  1.2944910231628582e+07  1.3516772520033147e+07  1.4043005416336222e+07  1.4527216198280506e+07  1.4974793592045302e