<?xml version="1.0"?>
<VTKFile type="UnstructuredGrid"  version="0.1"  >
<UnstructuredGrid>
<Piece  NumberOfPoints="11335" NumberOfCells="22258">
<Points>
<DataArray  type="Float64"  NumberOfComponents="3"  format="ascii">0 0 0  0 10 0  0.5 10 0  0.5 9.5 0  9.5 9.5 0  9.5 10 0  10 10 0  10 0 0  0.5 0.5 0  9.5 0.5 0  0 0.09999999999992584 0  0 0.199999999999856 0  0 0.2999999999997771 0  0 0.3999999999996677 0  0 0.4999999999995511 0  0 0.5999999999994683 0  0 0.6999999999993983 0  0 0.7999999999993286 0  0 0.8999999999992587 0  0 0.9999999999991888 0  0 1.099999999999119 0  0 1.199999999999033 0  0 1.299999999998852 0  0 1.399999999998576 0  0 1.499999999998284 0  0 1.599999999997992 0  0 1.6999999999977 0  0 1.799999999997408 0  0 1.899999999997116 0  0 1.999999999996825 0  0 2.099999999996533 0  0 2.199999999996241 0  0 2.299999999995949 0  0 2.399999999995657 0  0 2.499999999995365 0  0 2.599999999995073 0  0 2.699999999994782 0  0 2.79999999999449 0  0 2.899999999994198 0  0 2.999999999993906 0  0 3.099999999993614 0  0 3.199999999993322 0  0 3.299999999993029 0  0 3.399999999992738 0  0 3.499999999992446 0  0 3.599999999992154 0  0 3.699999999991863 0  0 3.799999999991571 0  0 3.899999999991278 0  0 3.999999999991022 0  0 4.099999999991035 0  0 4.199999999991187 0  0 4.299999999991338 0  0 4.399999999991491 0  0 4.499999999991642 0  0 4.599999999991795 0  0 4.699999999991947 0  0 4.799999999992099 0  0 4.89999999999225 0  0 4.999999999992403 0  0 5.099999999992555 0  0 5.199999999992706 0  0 5.299999999992858 0  0 5.39999999999301 0  0 5.499999999993161 0  0 5.599999999993313 0  0 5.699999999993466 0  0 5.799999999993618 0  0 5.899999999993771 0  0 5.999999999993922 0  0 6.099999999994074 0  0 6.199999999994227 0  0 6.299999999994378 0  0 6.39999999999453 0  0 6.499999999994682 0  0 6.599999999994833 0  0 6.699999999994986 0  0 6.799999999995138 0  0 6.899999999995289 0  0 6.999999999995442 0  0 7.099999999995594 0  0 7.199999999995747 0  0 7.299999999995897 0  0 7.39999999999605 0  0 7.499999999996202 0  0 7.599999999996353 0  0 7.699999999996505 0  0 7.799999999996658 0  0 7.899999999996808 0  0 7.999999999996962 0  0 8.099999999997113 0  0 8.199999999997265 0  0 8.299999999997418 0  0 8.399999999997569 0  0 8.499999999997721 0  0 8.599999999997873 0  0 8.699999999998024 0  0 8.799999999998176 0  0 8.899999999998329 0  0 8.999999999998479 0  0 9.099999999998634 0  0 9.199999999998786 0  0 9.299999999998937 0  0 9.399999999999089 0  0 9.499999999999241 0  0 9.599999999999392 0  0 9.699999999999545 0  0 9.799999999999697 0  0 9.899999999999848 0  0.09999999999977893 10 0  0.1999999999994874 10 0  0.2999999999994734 10 0  0.3999999999997367 10 0  0.5 9.9 0  0.5 9.800000000000001 0  0.5 9.699999999999999 0  0.5 9.6 0  0.5999999999997725 9.5 0  0.6999999999995451 9.5 0  0.7999999999993451 9.5 0  0.8999999999991337 9.5 0  0.9999999999989062 9.5 0  1.099999999998702 9.5 0  1.199999999998578 9.5 0  1.299999999998473 9.5 0  1.39999999999837 9.5 0  1.499999999998266 9.5 0  1.599999999998133 9.5 0  1.699999999997873 9.5 0  1.799999999997521 9.5 0  1.899999999997171 9.5 0  1.99999999999682 9.5 0  2.099999999996469 9.5 0  2.199999999996118 9.5 0  2.299999999995767 9.5 0  2.399999999995416 9.5 0  2.499999999995065 9.5 0  2.599999999994715 9.5 0  2.699999999994364 9.5 0  2.799999999994013 9.5 0  2.899999999993662 9.5 0  2.999999999993312 9.5 0  3.099999999992961 9.5 0  3.19999999999261 9.5 0  3.299999999992259 9.5 0  3.399999999991908 9.5 0  3.499999999991557 9.5 0  3.599999999991207 9.5 0  3.699999999990856 9.5 0  3.799999999990505 9.5 0  3.899999999990154 9.5 0  3.999999999989803 9.5 0  4.099999999989453 9.5 0  4.199999999989102 9.5 0  4.299999999988751 9.5 0  4.3999999999884 9.5 0  4.49999999998805 9.5 0  4.599999999987698 9.5 0  4.699999999987348 9.5 0  4.799999999986997 9.5 0  4.899999999986646 9.5 0  4.999999999986469 9.5 0  5.099999999986931 9.5 0  5.199999999987567 9.5 0  5.299999999988204 9.5 0  5.39999999998884 9.5 0  5.499999999989477 9.5 0  5.599999999990114 9.5 0  5.69999999999075 9.5 0  5.799999999991387 9.5 0  5.899999999992023 9.5 0  5.999999999992659 9.5 0  6.099999999993296 9.5 0  6.199999999993933 9.5 0  6.299999999994569 9.5 0  6.399999999995206 9.5 0  6.499999999995842 9.5 0  6.599999999996479 9.5 0  6.699999999997114 9.5 0  6.799999999997752 9.5 0  6.899999999998387 9.5 0  6.999999999999023 9.5 0  7.099999999999659 9.5 0  7.200000000000294 9.5 0  7.300000000000929 9.5 0  7.400000000001565 9.5 0  7.5000000000022 9.5 0  7.600000000002836 9.5 0  7.700000000003472 9.5 0  7.800000000004108 9.5 0  7.900000000004743 9.5 0  8.000000000005148 9.5 0  8.100000000004911 9.5 0  8.200000000004561 9.5 0  8.300000000004211 9.5 0  8.400000000003859 9.5 0  8.500000000003508 9.5 0  8.600000000003158 9.5 0  8.700000000002806 9.5 0  8.800000000002456 9.5 0  8.900000000002105 9.5 0  9.000000000001755 9.5 0  9.100000000001405 9.5 0  9.200000000001053 9.5 0  9.300000000000701 9.5 0  9.40000000000035 9.5 0  9.5 9.6 0  9.5 9.699999999999999 0  9.5 9.800000000000001 0  9.5 9.9 0  9.6 10 0  9.699999999999999 10 0  9.800000000000001 10 0  9.9 10 0  10 9.9 0  10 9.799999999999999 0  10 9.699999999999999 0  10 9.6 0  10 9.499999999999998 0  10 9.399999999999999 0  10 9.299999999999999 0  10 9.199999999999999 0  10 9.099999999999998 0  10 8.999999999999998 0  10 8.899999999999999 0  10 8.799999999999997 0  10 8.699999999999998 0  10 8.599999999999998 0  10 8.499999999999996 0  10 8.399999999999997 0  10 8.299999999999997 0  10 8.199999999999998 0  10 8.099999999999998 0  10 7.999999999999997 0  10 7.899999999999997 0  10 7.799999999999997 0  10 7.699999999999998 0  10 7.599999999999998 0  10 7.499999999999998 0  10 7.399999999999997 0  10 7.299999999999997 0  10 7.199999999999998 0  10 7.099999999999998 0  10 6.999999999999997 0  10 6.899999999999998 0  10 6.799999999999997 0  10 6.699999999999998 0  10 6.599999999999998 0  10 6.499999999999998 0  10 6.399999999999997 0  10 6.299999999999998 0  10 6.199999999999998 0  10 6.099999999999998 0  10 5.999999999999997 0  10 5.899999999999998 0  10 5.799999999999998 0  10 5.699999999999998 0  10 5.599999999999998 0  10 5.499999999999998 0  10 5.399999999999999 0  10 5.299999999999999 0  10 5.199999999999998 0  10 5.099999999999999 0  10 4.999999999999999 0  10 4.899999999999998 0  10 4.799999999999999 0  10 4.699999999999998 0  10 4.599999999999999 0  10 4.499999999999998 0  10 4.399999999999999 0  10 4.299999999999998 0  10 4.199999999999999 0  10 4.099999999999998 0  10 3.999999999999999 0  10 3.899999999999999 0  10 3.799999999999999 0  10 3.699999999999999 0  10 3.599999999999999 0  10 3.499999999999997 0  10 3.399999999999998 0  10 3.299999999999999 0  10 3.199999999999998 0  10 3.099999999999998 0  10 2.999999999999999 0  10 2.899999999999999 0  10 2.799999999999998 0  10 2.699999999999998 0  10 2.599999999999998 0  10 2.499999999999999 0  10 2.399999999999999 0  10 2.299999999999999 0  10 2.199999999999999 0  10 2.1 0  10 1.999999999999998 0  10 1.899999999999999 0  10 1.799999999999999 0  10 1.699999999999999 0  10 1.6 0  10 1.5 0  10 1.4 0  10 1.299999999999999 0  10 1.199999999999999 0  10 1.099999999999998 0  10 0.9999999999999982 0  10 0.9000000000000004 0  10 0.7999999999999989 0  10 0.6999999999999993 0  10 0.6000000000000014 0  10 0.5 0  10 0.3999999999999986 0  10 0.2999999999999989 0  10 0.1999999999999993 0  10 0.09999999999999964 0  9.9 0 0  9.799999999999999 0 0  9.699999999999999 0 0  9.6 0 0  9.499999999999998 0 0  9.399999999999999 0 0  9.299999999999999 0 0  9.199999999999999 0 0  9.099999999999998 0 0  8.999999999999998 0 0  8.899999999999999 0 0  8.799999999999997 0 0  8.699999999999998 0 0  8.599999999999998 0 0  8.499999999999996 0 0  8.399999999999997 0 0  8.299999999999997 0 0  8.199999999999998 0 0  8.099999999999998 0 0  7.999999999999997 0 0  7.899999999999997 0 0  7.799999999999997 0 0  7.699999999999998 0 0  7.599999999999998 0 0  7.499999999999998 0 0  7.399999999999997 0 0  7.299999999999997 0 0  7.199999999999998 0 0  7.099999999999998 0 0  6.999999999999997 0 0  6.899999999999998 0 0  6.799999999999997 0 0  6.699999999999998 0 0  6.599999999999998 0 0  6.499999999999998 0 0  6.399999999999997 0 0  6.299999999999998 0 0  6.199999999999998 0 0  6.099999999999998 0 0  5.999999999999997 0 0  5.899999999999998 0 0  5.799999999999998 0 0  5.699999999999998 0 0  5.599999999999998 0 0  5.499999999999998 0 0  5.399999999999999 0 0  5.299999999999999 0 0  5.199999999999998 0 0  5.099999999999999 0 0  4.999999999999999 0 0  4.899999999999998 0 0  4.799999999999999 0 0  4.699999999999998 0 0  4.599999999999999 0 0  4.499999999999998 0 0  4.399999999999999 0 0  4.299999999999998 0 0  4.199999999999999 0 0  4.099999999999998 0 0  3.999999999999999 0 0  3.899999999999999 0 0  3.799999999999999 0 0  3.699999999999999 0 0  3.599999999999999 0 0  3.499999999999997 0 0  3.399999999999998 0 0  3.299999999999999 0 0  3.199999999999998 0 0  3.099999999999998 0 0  2.999999999999999 0 0  2.899999999999999 0 0  2.799999999999998 0 0  2.699999999999998 0 0  2.599999999999998 0 0  2.499999999999999 0 0  2.399999999999999 0 0  2.299999999999999 0 0  2.199999999999999 0 0  2.1 0 0  1.999999999999998 0 0  1.899999999999999 0 0  1.799999999999999 0 0  1.699999999999999 0 0  1.6 0 0  1.5 0 0  1.4 0 0  1.299999999999999 0 0  1.199999999999999 0 0  1.099999999999998 0 0  0.9999999999999982 0 0  0.9000000000000004 0 0  0.7999999999999989 0 0  0.6999999999999993 0 0  0.6000000000000014 0 0  0.5 0 0  0.3999999999999986 0 0  0.2999999999999989 0 0  0.1999999999999993 0 0  0.09999999999999964 0 0  9.5 9.400000000000382 0  9.5 9.300000000000763 0  9.5 9.200000000001145 0  9.5 9.100000000001527 0  9.5 9.000000000001908 0  9.5 8.90000000000229 0  9.5 8.800000000002671 0  9.5 8.700000000003053 0  9.5 8.600000000003435 0  9.5 8.500000000003816 0  9.5 8.400000000004198 0  9.5 8.30000000000458 0  9.5 8.200000000004961 0  9.5 8.100000000005343 0  9.5 8.000000000005723 0  9.5 7.90000000000610
[...]
<PointData  Scalars="f_19"> 
<DataArray  type="Float64"  Name="f_19"  format="ascii">1.5000000000000000e+02  2.5225889321664923e+01  2.5040012177616841e+01  2.2828648313578263e+01  2.2838345896331493e+01  2.5030291398167673e+01  2.5216222320477833e+01  1.5000000000000000e+02  1.4468500548625559e+02  1.4468486155467124e+02  1.4857909821198209e+02  1.4717865077988159e+02  1.4574321113171823e+02  1.4424435963062825e+02  1.4266909402174522e+02  1.4101848286382130e+02  1.3930632383335040e+02  1.3755192732716935e+02  1.3577324048215337e+02  1.3398369743579957e+02  1.3219211359030052e+02  1.3040389018002622e+02  1.2862227758771141e+02  1.2684922783068798e+02  1.2508595335138553e+02  1.2333324016999612e+02  1.2159163697926647e+02  1.1986154801674490e+02  1.1814329371484979e+02  1.1643713754878618e+02  1.1474331319847909e+02  1.1306200871239724e+02  1.1139340125732963e+02  1.0973766191516545e+02  1.0809493824736641e+02  1.0646537222769837e+02  1.0484906787995745e+02  1.0324614008066207e+02  1.0165669359721952e+02  1.0008079857275831e+02  9.8518533458721805e+01  9.6969963582692387e+01  9.5435142553885242e+01  9.3914111723153141e+01  9.2406901593511236e+01  9.0913536445573584e+01  8.9434028282645926e+01  8.7968386867735077e+01  8.6516591753319929e+01  8.5078625694345646e+01  8.3654470795415889e+01  8.2244094899950341e+01  8.0847456273603612e+01  7.9464503446968678e+01  7.8095177458896771e+01  7.6739409781786307e+01  7.5397112380326249e+01  7.4068304298932134e+01  7.2752813373689762e+01  7.1450516572984057e+01  7.0161390246822634e+01  6.8885307754654932e+01  6.7622050226322983e+01  6.6372201377690075e+01  6.5134188254185020e+01  6.3909340680458982e+01  6.2696865957843762e+01  6.1496745867126847e+01  6.0308863658717911e+01  5.9133093833381295e+01  5.7969309297054842e+01  5.6817381964402529e+01  5.5677176925195425e+01  5.4548468121077320e+01  5.3431748750628707e+01  5.2325591734093500e+01  5.1231165170702013e+01  5.0147744292264449e+01  4.9075214703649614e+01  4.8014063542477018e+01  4.6962952295135622e+01  4.5923014445712376e+01  4.4893596119399113e+01  4.3874714409327801e+01  4.2866319176041642e+01  4.1868371384806593e+01  4.0880850789051713e+01  3.9903748813674738e+01  3.8937125698978292e+01  3.7981107444607609e+01  3.7035799501094360e+01  3.6101358816826554e+01  3.5178102139132498e+01  3.4266545308579687e+01  3.3367354698098140e+01  3.2481550742904012e+01  3.1610695671598080e+01  3.0757218992286464e+01  2.9924965093869044e+01  2.9120084085669482e+01  2.8352013568275385e+01  2.7634661401455599e+01  2.6988470885694603e+01  2.6439864259634099e+01  2.5998373374949178e+01  2.5678806157902272e+01  2.5463066370633673e+01  2.5329435691331408e+01  2.5255414008826097e+01  2.5218442469762607e+01  2.5177621060597154e+01  2.5120355849749878e+01  2.5066738687216468e+01  2.5032610419103367e+01  2.4974392951386541e+01  2.4813350407020828e+01  2.4396510775975326e+01  -4.8715225450922217e+00  4.0483876828483728e-01  -8.5513847772907536e-01  -6.9713051855091168e-01  -7.8786057958396194e-01  -8.0954694098971913e-01  -8.3434008080295874e-01  -8.5169148455225996e-01  -8.6598015300847608e-01  -8.7767504183703482e-01  -8.8754327457648519e-01  -8.9600405303169561e-01  -9.0336950181342746e-01  -9.0985932183348717e-01  -9.1563588563085307e-01  -9.2082095950936882e-01  -9.2550773859523927e-01  -9.2976868963372794e-01  -9.3366099218845811e-01  -9.3723035251712217e-01  -9.4051373755002365e-01  -9.4354136652652931e-01  -9.4633818445753670e-01  -9.4892496706795004e-01  -9.5131915955732838e-01  -9.5353552028801747e-01  -9.5558661962650093e-01  -9.5748322993019974e-01  -9.5923463282209709e-01  -9.6084886297787242e-01  -9.6233290272556327e-01  -9.6369283820767171e-01  -9.6493398526585028e-01  -9.6606099129789480e-01  -9.6707791791250874e-01  -9.6798830813456516e-01  -9.6879524109759430e-01  -9.6950137653323143e-01  -9.7010899088081892e-01  -9.7062000645872004e-01  -9.7103601483599700e-01  -9.7135829529969675e-01  -9.7158782911402641e-01  -9.7172531010244623e-01  -9.7177115194284580e-01  -9.7172549244290252e-01  -9.7158819495141568e-01  -9.7135884695685182e-01  -9.7103675582205962e-01  -9.7062094149959621e-01  -9.7011012596079960e-01  -9.6950271894864071e-01  -9.6879679952372910e-01  -9.6799009270738468e-01  -9.6707994032706868e-01  -9.6606326492590944e-01  -9.6493652529540452e-01  -9.6369566180882471e-01  -9.6233602924649086e-01  -9.6085231417739125e-01  -9.5923843314582324e-01  -9.5748740683958700e-01  -9.5559120399240194e-01  -9.5354054686372802e-01  -9.5132466755049672e-01  -9.4893100083645421e-01  -9.4634479436278884e-01  -9.4354860998861823e-01  -9.4052168036522810e-01  -9.3723907052101330e-01  -9.3367057338109671e-01  -9.2977923693346676e-01  -9.2551937346195701e-01  -9.2083382679324322e-01  -9.1565016018471324e-01  -9.0987521768794655e-01  -9.0338728525387912e-01  -8.9602406112488331e-01  -8.8756594424162061e-01  -8.7770094445504876e-01  -8.6601009295122888e-01  -8.5172643628470557e-01  -8.3438223538599776e-01  -8.0959603861687457e-01  -7.8793559960673631e-01  -6.9716515799728884e-01  -8.5539300946498675e-01  4.0504165829886707e-01  -4.8740180332703877e+00  2.4380566204586358e+01  2.4806975769110586e+01  2.4963475718788906e+01  2.5022582232004506e+01  2.5057300623370665e+01  2.5110969013697236e+01  2.5168342872672344e+01  2.5208885445504606e+01  2.5245781960929868e+01  2.5319937100770343e+01  2.5453060712597800e+01  2.5669455137585960e+01  2.5990481438597762e+01  2.6429231974248268e+01  2.6980813527994808e+01  2.7626775204377893e+01  2.8343421775312986e+01  2.9111578999968117e+01  2.9916647916118720e+01  3.0748995565533590e+01  3.1602598593037147e+01  3.2473588119958848e+01  3.3359528186557540e+01  3.4258851340463693e+01  3.5170532788753988e+01  3.6093890027553854e+01  3.7028462206421182e+01  3.7973936740671896e+01  3.8930103742468894e+01  3.9896826977875534e+01  4.0874024808252415e+01  4.1861657263144245e+01  4.2859716933864682e+01  4.3868222347077293e+01  4.4887213039537890e+01  4.5916745809827276e+01  4.6956891764081540e+01  4.8007733905503123e+01  4.9069365127024724e+01  5.0141886528125404e+01  5.1225405993266648e+01  5.2320036969481613e+01  5.3425897398653788e+01  5.4543108779373199e+01  5.5671795325445636e+01  5.6812083181597160e+01  5.7964099683652663e+01  5.9127972683538587e+01  6.0303829955222547e+01  6.1491798659729874e+01  6.2692004823654159e+01  6.3904572812436300e+01  6.5129624823495021e+01  6.6367280426417580e+01  6.7617656146409999e+01  6.8880865063797742e+01  7.0157016402549658e+01  7.1446215104257519e+01  7.2748561407600079e+01  7.4064150448406934e+01  7.5393071873092893e+01  7.6735409455868066e+01  7.8091240729889023e+01  7.9460636646900838e+01  8.0843661259628618e+01  8.2240371406938721e+01  8.3650816387277189e+01  8.5075037620926395e+01  8.6513068320586129e+01  8.7964933195929390e+01  8.9430648190489180e+01  9.0910220220899134e+01  9.2403646911610394e+01  9.3910916357121977e+01  9.5432006911047026e+01  9.6966886943237640e+01  9.8515514546173137e+01  1.0007783724710707e+02  1.0165379177971329e+02  1.0324330404362672e+02  1.0484628879578774e+02  1.0646264788085743e+02  1.0809226229588160e+02  1.0973502756707194e+02  1.1139081438179537e+02  1.1305951873538693e+02  1.1474084973503997e+02  1.1643474142663021e+02  1.1814096103991584e+02  1.1985925029292524e+02  1.2158938363635644e+02  1.2333103378220054e+02  1.2508382440253783e+02  1.2684711693518410e+02  1.2862019618106046e+02  1.3040189008982688e+02  1.3219017512041160e+02  1.3398182227265056e+02  1.3577143568735161e+02  1.3755024323648195e+02  1.3930481490856914e+02  1.4101663650666723e+02  1.4266737695059498e+02  1.4424208420323461e+02  1.4574262884451679e+02  1.4717822543061624e+02  1.4857862868394452e+02  1.5000000000000000e+02  1.5000000000000000e+02  1.5000000000000000e+02  1.5000000000000000e+02  1.5000000000000000e+02  1.5000000000000003e+02  1.5000000000000000e+02  1.5000000000000000e+02  1.5000000000000000e+02  1.5000000000000000e+02  1.5000000000000000e+02  1.5000000000000000e+02  1.5000000000000000e+02  1.5000000000000003e+02  1.5000000000000003e+02  1.5000000000000000e+02  1.5000000000000000e+02  1.5000000000000000e+02  1.5000000000000000e+02  1.4999999999999997e+02  1.5000000000000000e+02  1.5000000000000000e+02  1.5000000000000000e+02  1.5000000000000000e+02  1.5000000000000000e+02  1.5000000000000000e+02  1.5000000000000000e+02  1.5000000000000000e+02  1.5000000000000000e+02  1.5000000000000000e+02  1.5000000000000000e+02  1.5000000000000000e+02  1.5000000000000000e+02  1.5000000000000000e+02  1.5000000000000000e+02  1.5000000000000000e+02  1.5000000000000000e+02  1.5000000000000000e+02  1.5000000000000000e+02  1.5000000000000000e+02  1.5000000000000000e+02  1.5000000000000000e+02  1.5000000000000000e+02  1.5000000000000000e+02  1.5000000000000000e+02  1.5000000000000000e+02  1.5000000000000000e+02  1.5000000000000000e+02  1.5000000000000000e+02  1.5000000000000000e+02  1.5000000000000000e+02  1.5000000000000000e+02  1.4999999999999997e+02  1.5000000000000000e+02  1.5000000000000000e+02  1.5000000000000000e+02  1.5000000000000000e+02  1.5000000000000000e+02  1.4999999999999997e+02  1.5000000000000000e+02  1.5000000000000000e+02  1.5000000000000000e+02  1.5000000000000000e+02  1.5000000000000000e+02  1.5000000000000000e+02  1.5000000000000000e+02  1.5000000000000000e+02  1.5000000000000000e+02  1.5000000000000000e+02  1.5000000000000000e+02  1.5000000000000000e+02  1.5000000000000000e+02  1.5000000000000000e+02  1.5000000000000000e+02  1.5000000000000000e+02  1.5000000000000000e+02  1.5000000000000000e+02  1.5000000000000000e+02  1.5000000000000000e+02  1.5000000000000000e+02  1.5000000000000000e+02  1.5000000000000000e+02  1.5000000000000000e+02  1.5000000000000000e+02  1.5000000000000000e+02  1.5000000000000000e+02  1.4999999999999997e+02  1.5000000000000000e+02  1.5000000000000000e+02  1.5000000000000000e+02  1.5000000000000000e+02  1.5000000000000000e+02  1.5000000000000000e+02  1.5000000000000000e+02  1.5000000000000000e+02  1.5000000000000000e+02  1.5000000000000000e+02  1.5000000000000000e+02  1.5000000000000000e+02  2.4827380989307418e+01  2.6033806804598278e+01  2.7030088656248299e+01  2.7950288809487990e+01  2.8839006158007994e+01  2.9717955916977463e+01  3.0597010981863491e+01  3.1481200862940874e+01  3.2372704653804341e+01  3.3272921127585207e+01  3.4182761846883750e+01  3.5102269063188906e+01  3.6031654695101807e+01  3.6971093938990435e+01  3.7920387376092350e+01  3.8879787309102483e+01  3.9849169799798112e+01  4.0828611764885764e+01  4.1818160050251016e+01  4.2817868324944314e+01  4.3827822412141572e+01  4.4848070064662153e+01  4.5878720009429756e+01  4.6919866910099181e+01  4.7971606772938436e+01  4.9034073616976194e+01  5.0107367352504696e+01  5.1191607111416836e+01  5.2286942938775844e+01  5.3393472794702234e+01  5.4511360822485656e+01  5.5640701993791538e+01  5.6781670055671128e+01  5.7934379514875225e+01  5.9098972552849695e+01  6.0275590470942078e+01  6.1464337129448751e+01  6.2665382092023471e+01  6.3878837994038527e+01  6.5104833549224011e+01  6.6343504648857476e+01  6.7594953206175376e+01  6.8859314013440326e+01  7.0136690389212006e+01  7.1427205706885914e+01  7.2730956710771665e+01  7.4048043893583255e+01  7.5378560520254908e+01  7.6722604280790037e+01  7.8080248601570929e+01  7.9451570628735880e+01  8.0836637610507765e+01  8.2235510233007261e+01  8.3648243788203914e+01  8.5074878722004513e+01  8.6515471467087536e+01  8.7970023493237065e+01  8.9438567397550045e+01  9.0921110967163514e+01  9.2417654025664064e+01  9.3928222903323487e+01  9.5452687109917576e+01  9.6991173705728841e+01  9.8543525778187515e+01  1.0010973366698344e+02  1.0168979539165352e+02  1.0328347600531661e+02  1.0489089709915966e+02  1.0651175455006634e+02  1.0814616958301966e+02  1.0979385298210528e+02  1.1145473559330361e+02  1.1312874781355139e+02  1.1481558089184455e+02  1.1651521398284046e+02  1.1822747706674045e+02  1.1995214405475114e+02  1.2168908685456277e+02  1.2343819792300908e+02  1.2519919472383874e+02  1.2697231082343147e+02  1.2875785806151143e+02  1.3055604408192221e+02  1.3236842253704501e+02  1.3419777232151989e+02  1.3604973365007012e+02  1.3793720105997610e+02  1.3988973992966214e+02  1.4200167182710052e+02  1.4657325678694585e+02  1.4753256881867384e+02  1.4814647367572201e+02  1.4857052726307256e+02  1.4887206745868014e+02  1.4908917665067344e+02  1.4924627566354974e+02  1.4936007552710390e+02  1.4944235891837192e+02  1.4950160598008267e+02  1.4954397563477863e+02  1.4957396315794071e+02  1.4959486669551143e+02  1.4960910103877220e+02  1.4961844415230487e+02  1.4962420553398351e+02  1.4962734853811079e+02  1.4962859308281648e+02  1.4962846201408669e+02  1.4962734901561768e+02  1.4962554281791600e+02  1.4962326187788125e+02  1.4962066378693899e+02  1.4961787456400918e+02  1.4961498331702413e+02  1.4961205835000484e+02  1.4960915030848884e+02  1.4960630216360269e+02  1.4960354139411029e+02  1.4960088870393918e+02  1.4959836515079360e+02  1.4959598312987549e+02  1.4959375303492774e+02  1.4959168298367914e+02  1.4958977927681715e+02  1.4958804680857943e+02  1.4958648938220176e+02  1.4958510995000853e+02  1.4958391079658952e+02  1.4958289368108606e+02  1.4958205993475676e+02  1.4958141054609553e+02  1.4958094622447177e+02  1.4958066746724541e+02  1.4958057456529770e+02  1.4958066760000099e+02  1.4958094660311733e+02  1.4958141108377799e+02  1.4958206061805970e+02  1.4958289451104258e+02  1.4958391179248844e+02  1.4958511136161351e+02  1.4958649105433361e+02  1.4958804858817268e+02  1.4958978076745026e+02  1.4959168382224925e+02  1.4959375420094040e+02  1.4959598508186909e+02  1.4959836808624729e+02  1.4960089279466348e+02  1.4960354428473286e+02  1.4960630504839116e+02  1.4960915264045263e+02  1.4961205987946417e+02  1.4961498458809777e+02  1.4961787646921067e+02  1.4962066319881396e+02  1.4962325868909366e+02  1.4962553964785894e+02  1.4962734365902659e+02  1.4962845419072249e+02  1.4962858037478287e+02  1.4962733073942491e+02  1.4962417755886747e+02  1.4961840083984444e+02  1.4960903697103851e+02  1.4959477912057270e+02  1.4957385160840985e+02  1.4954384567916770e+02  1.4950150833968107e+02  1.4944220249434204e+02  1.4935987014546347e+02  1.4924612593640265e+02  1.4908907079583531e+02  1.4887206379607707e+02  1.4857075024601571e+02  1.4814712847995116e+02  1.4753261625111003e+02  1.4656606087100002e+02  1.4200256515813905e+02  1.3989255596078226e+02  1.3793967946530358e+02  1.3605193625706247e+02  1.3419973978828929e+02  1.3237036638727389e+02  1.3055806906350969e+02  1.2875991947374905e+02  1.2697443346889172e+02  1.2520140560239105e+02  1.2344040117440696e+02  1.2169133203704598e+02  1.1995446087047482e+02  1.1822974710183655e+02  1.1651766590927168e+02  1.1481804231705544e+02  1.1313122521755322e+02  1.1145731167520367e+02  1.0979647421241762e+02  1.0814881626492161e+02  1.0651444651682915e+02  1.0489370022798850e+02  1.0328630677139365e+02  1.0169269185237913e+02  1.0011270359069125e+02  9.8546540980965233e+01  9.6994246180638442e+01  9.5455817931546946e+01  9.3931416270021543e+01  9.2420908362657158e+01  9.0924412166239762e+01  8.9441929928902880e+01  8.7973473191807869e+01  8.6519004498808442e+01  8.5078461532689332e+01  8.3651890812041188e+01  8.2239214878384544e+01  8.0840277284166262e+01  7.9455748430228965e+01  7.8084025256740844e+01  7.6726600832110307e+01  7.5382664276071424e+01  7.4052205429083742e+01  7.2735138903960276e+01  7.1431498570577176e+01  7.0141067365590004e+01  6.8863763222417475e+01  6.7599480324278233e+01  6.6348110618825274e+01  6.5109529576338431e+01  6.3883614515114495e+01  6.2670241416000970e+01  6.1469281724462796e+01  6.0280619799456581e+01  5.9104085351780917e+01  5.7939591573369185e+01  5.6786966368122336e+01  5.5646084778674521e+01  5.4516839348936358e+01  5.3399047431274766e+01  5.2292611685320615e+01  5.1197370246853630e+01  5.0113223691589418e+01  4.9040032135642946e+01  4.7977672670490634e+01  4.6926035518369488e+01  4.5884991685022271e+01  4.4854446521255667e+01  4.3834307554615286e+01  4.2824459697795028e+01  4.1824857863641647e+01  4.0835416610938175e+01  3.9856095103102497e+01  3.8886837434340151e+01  3.7927538416330272e+01  3.6978358488849949e+01  3.6039153251673717e+01  3.5109845670403466e+01  3.4190474311775731e+01  3.3280723474349806e+01  3.2380663935537164e+01  3.1489422670016832e+01  3.0605422193496668e+01  2.9726535848090275e+01  2.8847754856716094e+01  2.7959378357863383e+01  2.7039748015987289e+01  2.6047115779870275e+01  2.4843975005350384e+01  1.4509049606847250e+02  1.4525494413404573e+02  1.4889715525172664e+02  1.4900583262717666e+02  3.5596059175664493e+01  1.4962207214662430e+02  1.4953879055746512e+02  1.2783724621591563e+02  1.4947013731171094e+02  3.1966069824764407e+01  7.4724020878018422e+01  8.7281542299333353e+01  1.4937816383099252e+02  3.1081338037137893e+01  9.1693598255188476e+01  9.4713341941049876e+01  9.7788743353424650e+01  1.4924956252478853e+02  1.0093383844652611e+02  1.0576046568517766e+02  1.4907278096500764e+02  7.7429999800104781e+01  1.1063789259504165e+02  1.1399902729439420e+02  1.1909677068889442e+02  1.3512021472195207e+02  1.4882878604953498e+02  2.8476337833746392e+01  2.8485301466045311e+01  1.2256741892446328e+02  1.4082090541784518e+02  8.1563715894903794e+01  2.5782229914308783e+01  8.4388384018531454e+01  1.4648205506410048e+02  1.2424534252631456e+02  1.4639993063277186e+02  2.5780241790252752e+01  1.2777570160527867e+02  1.4801882844707160e+02  1.4801746050766175e+02  1.4284216475343885e+02  1.3150300939729871e+02  1.3696030944764607e+02  1.3145184559573909e+02  3.0209403753280466e+01  2.5781728628371038e+01  3.3760576124872479e+01  1.4966376514194394e+02  2.4513457304225557e+01  3.7472650384199085e+01  1.4991373700427417e+02  1.4968307143251477e+02  3.9390056531009783e+01  2.4961799589501290e+01  1.0089431926033794e+02  1.4993346860205276e+02  1.4969036801938131e+02  4.1348171707182850e+01  3.2866162749326776e+01  1.4969129725829021e+02  2.4987891037683532e+01  1.4993426117355480e+02  4.3347183598504365e+01  1.4968894149720728e+02  3.4680808793192391e+01  4.5387523884456058e+01  1.2076064867587785e+02  7.2108458879572211e+01  1.4968499820134900e+02  1.0730838341660623e+02  6.8271355349312898e+01  3.6548424918467305e+01  4.7469822736162087e+01  1.4992929311121480e+02  1.4968041368132378e+02  4.6454197115288771e+01  1.1730496864723138e+02  4.9594871974237407e+01  1.4993456101540909e+02  1.4967571875751582e+02  6.4538313583712394e+01  1.1221131735353052e+02  5.1763567687507638e+01  1.4967121680785863e+02  4.9623652206943873e+01  1.4993310747295493e+02  5.3976889229032345e+01  1.4966708142601223e+02  5.1791187846535962e+01  5.6235859728935047e+01  5.9736008111634149e+01  1.4966341613555645e+02  5.8541542255629537e+01  1.4966028158443370e+02  5.7407696475919778e+01  1.4993473991438361e+02  6.0894997937174821e+01  1.4965771427242186e+02  5.5126609097813358e+01  6.3297276759692892e+01  1.0407448681662002e+02  1.4965573612201663e+02  6.5749411898431362e+01  1.4965436015633753e+02  6.8252386001788551e+01  1.4965359364935983e+02  6.2112533028027592e+01  3.8433373916864113e+01  9.7768560576234208e+01  1.4993255316673540e+02  7.0807131556515529e+01  9.4697716840672769e+01  1.4993162196389389e+02  4.4394638181180468e+01  9.1682123456260925e+01  1.4993073570467479e+02  4.2377168028453923e+01  1.4992992935700101e+02  8.8721953644753697e+01  4.0401446363159629e+01  1.4992922342133122e+02  8.5817226417465605e+01  8.2967814179771139e+01  1.4992862995158569e+02  8.0173451139001259e+01  1.4992815606432976e+02  1.4965344025927928e+02  7.7433742782982080e+01  1.4992780621275526e+02  1.4993103003938472e+02  7.4748176507755204e+01  1.4552090718370516e+02  7.2116131833258109e+01  7.0824295058806655e+01  1.4989313753391122e+02  9.0198452230431982e+01  2.9517541572385760e+01  1.0407729411404920e+02  1.0894784562558698e+02  1.2424753934960350e+02  1.1732509269939285e+02  8.0177283972419588e+01  1.1226054758900416e+02  1.2076292549046438e+02  1.4961660225087280e+02  9.9327594858681323e+01  9.62