<?xml version="1.0"?>
<VTKFile type="UnstructuredGrid"  version="0.1"  >
<UnstructuredGrid>
<Piece  NumberOfPoints="11335" NumberOfCells="22258">
<Points>
<DataArray  type="Float64"  NumberOfComponents="3"  format="ascii">0 0 0  0 10 0  0.5 10 0  0.5 9.5 0  9.5 9.5 0  9.5 10 0  10 10 0  10 0 0  0.5 0.5 0  9.5 0.5 0  0 0.09999999999992584 0  0 0.199999999999856 0  0 0.2999999999997771 0  0 0.3999999999996677 0  0 0.4999999999995511 0  0 0.5999999999994683 0  0 0.6999999999993983 0  0 0.7999999999993286 0  0 0.8999999999992587 0  0 0.9999999999991888 0  0 1.099999999999119 0  0 1.199999999999033 0  0 1.299999999998852 0  0 1.399999999998576 0  0 1.499999999998284 0  0 1.599999999997992 0  0 1.6999999999977 0  0 1.799999999997408 0  0 1.899999999997116 0  0 1.999999999996825 0  0 2.099999999996533 0  0 2.199999999996241 0  0 2.299999999995949 0  0 2.399999999995657 0  0 2.499999999995365 0  0 2.599999999995073 0  0 2.699999999994782 0  0 2.79999999999449 0  0 2.899999999994198 0  0 2.999999999993906 0  0 3.099999999993614 0  0 3.199999999993322 0  0 3.299999999993029 0  0 3.399999999992738 0  0 3.499999999992446 0  0 3.599999999992154 0  0 3.699999999991863 0  0 3.799999999991571 0  0 3.899999999991278 0  0 3.999999999991022 0  0 4.099999999991035 0  0 4.199999999991187 0  0 4.299999999991338 0  0 4.399999999991491 0  0 4.499999999991642 0  0 4.599999999991795 0  0 4.699999999991947 0  0 4.799999999992099 0  0 4.89999999999225 0  0 4.999999999992403 0  0 5.099999999992555 0  0 5.199999999992706 0  0 5.299999999992858 0  0 5.39999999999301 0  0 5.499999999993161 0  0 5.599999999993313 0  0 5.699999999993466 0  0 5.799999999993618 0  0 5.899999999993771 0  0 5.999999999993922 0  0 6.099999999994074 0  0 6.199999999994227 0  0 6.299999999994378 0  0 6.39999999999453 0  0 6.499999999994682 0  0 6.599999999994833 0  0 6.699999999994986 0  0 6.799999999995138 0  0 6.899999999995289 0  0 6.999999999995442 0  0 7.099999999995594 0  0 7.199999999995747 0  0 7.299999999995897 0  0 7.39999999999605 0  0 7.499999999996202 0  0 7.599999999996353 0  0 7.699999999996505 0  0 7.799999999996658 0  0 7.899999999996808 0  0 7.999999999996962 0  0 8.099999999997113 0  0 8.199999999997265 0  0 8.299999999997418 0  0 8.399999999997569 0  0 8.499999999997721 0  0 8.599999999997873 0  0 8.699999999998024 0  0 8.799999999998176 0  0 8.899999999998329 0  0 8.999999999998479 0  0 9.099999999998634 0  0 9.199999999998786 0  0 9.299999999998937 0  0 9.399999999999089 0  0 9.499999999999241 0  0 9.599999999999392 0  0 9.699999999999545 0  0 9.799999999999697 0  0 9.899999999999848 0  0.09999999999977893 10 0  0.1999999999994874 10 0  0.2999999999994734 10 0  0.3999999999997367 10 0  0.5 9.9 0  0.5 9.800000000000001 0  0.5 9.699999999999999 0  0.5 9.6 0  0.5999999999997725 9.5 0  0.6999999999995451 9.5 0  0.7999999999993451 9.5 0  0.8999999999991337 9.5 0  0.9999999999989062 9.5 0  1.099999999998702 9.5 0  1.199999999998578 9.5 0  1.299999999998473 9.5 0  1.39999999999837 9.5 0  1.499999999998266 9.5 0  1.599999999998133 9.5 0  1.699999999997873 9.5 0  1.799999999997521 9.5 0  1.899999999997171 9.5 0  1.99999999999682 9.5 0  2.099999999996469 9.5 0  2.199999999996118 9.5 0  2.299999999995767 9.5 0  2.399999999995416 9.5 0  2.499999999995065 9.5 0  2.599999999994715 9.5 0  2.699999999994364 9.5 0  2.799999999994013 9.5 0  2.899999999993662 9.5 0  2.999999999993312 9.5 0  3.099999999992961 9.5 0  3.19999999999261 9.5 0  3.299999999992259 9.5 0  3.399999999991908 9.5 0  3.499999999991557 9.5 0  3.599999999991207 9.5 0  3.699999999990856 9.5 0  3.799999999990505 9.5 0  3.899999999990154 9.5 0  3.999999999989803 9.5 0  4.099999999989453 9.5 0  4.199999999989102 9.5 0  4.299999999988751 9.5 0  4.3999999999884 9.5 0  4.49999999998805 9.5 0  4.599999999987698 9.5 0  4.699999999987348 9.5 0  4.799999999986997 9.5 0  4.899999999986646 9.5 0  4.999999999986469 9.5 0  5.099999999986931 9.5 0  5.199999999987567 9.5 0  5.299999999988204 9.5 0  5.39999999998884 9.5 0  5.499999999989477 9.5 0  5.599999999990114 9.5 0  5.69999999999075 9.5 0  5.799999999991387 9.5 0  5.899999999992023 9.5 0  5.999999999992659 9.5 0  6.099999999993296 9.5 0  6.199999999993933 9.5 0  6.299999999994569 9.5 0  6.399999999995206 9.5 0  6.499999999995842 9.5 0  6.599999999996479 9.5 0  6.699999999997114 9.5 0  6.799999999997752 9.5 0  6.899999999998387 9.5 0  6.999999999999023 9.5 0  7.099999999999659 9.5 0  7.200000000000294 9.5 0  7.300000000000929 9.5 0  7.400000000001565 9.5 0  7.5000000000022 9.5 0  7.600000000002836 9.5 0  7.700000000003472 9.5 0  7.800000000004108 9.5 0  7.900000000004743 9.5 0  8.000000000005148 9.5 0  8.100000000004911 9.5 0  8.200000000004561 9.5 0  8.300000000004211 9.5 0  8.400000000003859 9.5 0  8.500000000003508 9.5 0  8.600000000003158 9.5 0  8.700000000002806 9.5 0  8.800000000002456 9.5 0  8.900000000002105 9.5 0  9.000000000001755 9.5 0  9.100000000001405 9.5 0  9.200000000001053 9.5 0  9.300000000000701 9.5 0  9.40000000000035 9.5 0  9.5 9.6 0  9.5 9.699999999999999 0  9.5 9.800000000000001 0  9.5 9.9 0  9.6 10 0  9.699999999999999 10 0  9.800000000000001 10 0  9.9 10 0  10 9.9 0  10 9.799999999999999 0  10 9.699999999999999 0  10 9.6 0  10 9.499999999999998 0  10 9.399999999999999 0  10 9.299999999999999 0  10 9.199999999999999 0  10 9.099999999999998 0  10 8.999999999999998 0  10 8.899999999999999 0  10 8.799999999999997 0  10 8.699999999999998 0  10 8.599999999999998 0  10 8.499999999999996 0  10 8.399999999999997 0  10 8.299999999999997 0  10 8.199999999999998 0  10 8.099999999999998 0  10 7.999999999999997 0  10 7.899999999999997 0  10 7.799999999999997 0  10 7.699999999999998 0  10 7.599999999999998 0  10 7.499999999999998 0  10 7.399999999999997 0  10 7.299999999999997 0  10 7.199999999999998 0  10 7.099999999999998 0  10 6.999999999999997 0  10 6.899999999999998 0  10 6.799999999999997 0  10 6.699999999999998 0  10 6.599999999999998 0  10 6.499999999999998 0  10 6.399999999999997 0  10 6.299999999999998 0  10 6.199999999999998 0  10 6.099999999999998 0  10 5.999999999999997 0  10 5.899999999999998 0  10 5.799999999999998 0  10 5.699999999999998 0  10 5.599999999999998 0  10 5.499999999999998 0  10 5.399999999999999 0  10 5.299999999999999 0  10 5.199999999999998 0  10 5.099999999999999 0  10 4.999999999999999 0  10 4.899999999999998 0  10 4.799999999999999 0  10 4.699999999999998 0  10 4.599999999999999 0  10 4.499999999999998 0  10 4.399999999999999 0  10 4.299999999999998 0  10 4.199999999999999 0  10 4.099999999999998 0  10 3.999999999999999 0  10 3.899999999999999 0  10 3.799999999999999 0  10 3.699999999999999 0  10 3.599999999999999 0  10 3.499999999999997 0  10 3.399999999999998 0  10 3.299999999999999 0  10 3.199999999999998 0  10 3.099999999999998 0  10 2.999999999999999 0  10 2.899999999999999 0  10 2.799999999999998 0  10 2.699999999999998 0  10 2.599999999999998 0  10 2.499999999999999 0  10 2.399999999999999 0  10 2.299999999999999 0  10 2.199999999999999 0  10 2.1 0  10 1.999999999999998 0  10 1.899999999999999 0  10 1.799999999999999 0  10 1.699999999999999 0  10 1.6 0  10 1.5 0  10 1.4 0  10 1.299999999999999 0  10 1.199999999999999 0  10 1.099999999999998 0  10 0.9999999999999982 0  10 0.9000000000000004 0  10 0.7999999999999989 0  10 0.6999999999999993 0  10 0.6000000000000014 0  10 0.5 0  10 0.3999999999999986 0  10 0.2999999999999989 0  10 0.1999999999999993 0  10 0.09999999999999964 0  9.9 0 0  9.799999999999999 0 0  9.699999999999999 0 0  9.6 0 0  9.499999999999998 0 0  9.399999999999999 0 0  9.299999999999999 0 0  9.199999999999999 0 0  9.099999999999998 0 0  8.999999999999998 0 0  8.899999999999999 0 0  8.799999999999997 0 0  8.699999999999998 0 0  8.599999999999998 0 0  8.499999999999996 0 0  8.399999999999997 0 0  8.299999999999997 0 0  8.199999999999998 0 0  8.099999999999998 0 0  7.999999999999997 0 0  7.899999999999997 0 0  7.799999999999997 0 0  7.699999999999998 0 0  7.599999999999998 0 0  7.499999999999998 0 0  7.399999999999997 0 0  7.299999999999997 0 0  7.199999999999998 0 0  7.099999999999998 0 0  6.999999999999997 0 0  6.899999999999998 0 0  6.799999999999997 0 0  6.699999999999998 0 0  6.599999999999998 0 0  6.499999999999998 0 0  6.399999999999997 0 0  6.299999999999998 0 0  6.199999999999998 0 0  6.099999999999998 0 0  5.999999999999997 0 0  5.899999999999998 0 0  5.799999999999998 0 0  5.699999999999998 0 0  5.599999999999998 0 0  5.499999999999998 0 0  5.399999999999999 0 0  5.299999999999999 0 0  5.199999999999998 0 0  5.099999999999999 0 0  4.999999999999999 0 0  4.899999999999998 0 0  4.799999999999999 0 0  4.699999999999998 0 0  4.599999999999999 0 0  4.499999999999998 0 0  4.399999999999999 0 0  4.299999999999998 0 0  4.199999999999999 0 0  4.099999999999998 0 0  3.999999999999999 0 0  3.899999999999999 0 0  3.799999999999999 0 0  3.699999999999999 0 0  3.599999999999999 0 0  3.499999999999997 0 0  3.399999999999998 0 0  3.299999999999999 0 0  3.199999999999998 0 0  3.099999999999998 0 0  2.999999999999999 0 0  2.899999999999999 0 0  2.799999999999998 0 0  2.699999999999998 0 0  2.599999999999998 0 0  2.499999999999999 0 0  2.399999999999999 0 0  2.299999999999999 0 0  2.199999999999999 0 0  2.1 0 0  1.999999999999998 0 0  1.899999999999999 0 0  1.799999999999999 0 0  1.699999999999999 0 0  1.6 0 0  1.5 0 0  1.4 0 0  1.299999999999999 0 0  1.199999999999999 0 0  1.099999999999998 0 0  0.9999999999999982 0 0  0.9000000000000004 0 0  0.7999999999999989 0 0  0.6999999999999993 0 0  0.6000000000000014 0 0  0.5 0 0  0.3999999999999986 0 0  0.2999999999999989 0 0  0.1999999999999993 0 0  0.09999999999999964 0 0  9.5 9.400000000000382 0  9.5 9.300000000000763 0  9.5 9.200000000001145 0  9.5 9.100000000001527 0  9.5 9.000000000001908 0  9.5 8.90000000000229 0  9.5 8.800000000002671 0  9.5 8.700000000003053 0  9.5 8.600000000003435 0  9.5 8.500000000003816 0  9.5 8.400000000004198 0  9.5 8.30000000000458 0  9.5 8.200000000004961 0  9.5 8.100000000005343 0  9.5 8.000000000005723 0  9.5 7.90000000000610
[...]
<PointData  Scalars="f_18"> 
<DataArray  type="Float64"  Name="f_18"  format="ascii">1.5000000000000000e+02  1.2443281673044602e+02  1.2442957953427597e+02  1.2440248968618404e+02  1.2440215780570568e+02  1.2442929708142157e+02  1.2443252716263066e+02  1.5000000000000000e+02  1.4881413305522588e+02  1.4881414347483994e+02  1.4970370931968446e+02  1.4940046905366637e+02  1.4908460111613468e+02  1.4875111312815406e+02  1.4839771607908995e+02  1.4802492145290111e+02  1.4763597879471226e+02  1.4723531941576780e+02  1.4682705355137489e+02  1.4641428447930292e+02  1.4599908432744462e+02  1.4558276803197899e+02  1.4516616614167572e+02  1.4474982179185344e+02  1.4433411192730290e+02  1.4391931833848921e+02  1.4350566891887399e+02  1.4309335953174340e+02  1.4268256720928329e+02  1.4227345669730198e+02  1.4186618559466396e+02  1.4146090303176743e+02  1.4105775516907269e+02  1.4065688643738918e+02  1.4025843704364235e+02  1.3986254594511814e+02  1.3946934498109005e+02  1.3907896805673374e+02  1.3869154736560009e+02  1.3830720803146372e+02  1.3792607730447548e+02  1.3754828000682664e+02  1.3717393868917785e+02  1.3680317343323878e+02  1.3643610217489780e+02  1.3607284185603572e+02  1.3571350698694843e+02  1.3535821198159556e+02  1.3500706342257345e+02  1.3466016938506476e+02  1.3431763835335781e+02  1.3397957517653120e+02  1.3364608218579315e+02  1.3331725916425890e+02  1.3299320387061985e+02  1.3267401122097399e+02  1.3235976938628164e+02  1.3205060643917875e+02  1.3174657954155120e+02  1.3144776460766221e+02  1.3115427609990596e+02  1.3086618715494598e+02  1.3058353224573580e+02  1.3030669171673645e+02  1.3003510249759228e+02  1.2976948551811296e+02  1.2950961059625379e+02  1.2925559802763567e+02  1.2900752163043012e+02  1.2876544993580973e+02  1.2852944925089741e+02  1.2829958366493662e+02  1.2807591161408473e+02  1.2785844022058042e+02  1.2764756761832273e+02  1.2744262516713243e+02  1.2724439428929003e+02  1.2705258045307244e+02  1.2686723290365107e+02  1.2668875795096879e+02  1.2651644849745463e+02  1.2635110509665914e+02  1.2619241420628181e+02  1.2604047269278495e+02  1.2589532376357596e+02  1.2575700481836722e+02  1.2562554996372107e+02  1.2550098357613894e+02  1.2538334533894567e+02  1.2527269610732371e+02  1.2516904529408711e+02  1.2507238346890546e+02  1.2498273666519414e+02  1.2490015759311970e+02  1.2482465379559116e+02  1.2475623527094962e+02  1.2469490503682013e+02  1.2464065195631571e+02  1.2459344643428948e+02  1.2455323336629007e+02  1.2451986302735942e+02  1.2449308670556900e+02  1.2447248756104642e+02  1.2445760953242412e+02  1.2444726929953842e+02  1.2444065185448285e+02  1.2443661333622747e+02  1.2443431043012583e+02  1.2443315992258346e+02  1.2443253293908744e+02  1.2443173320335939e+02  1.2443073476545501e+02  1.2442988992656076e+02  1.2442928499737729e+02  1.2442816407986429e+02  1.2442552146861017e+02  1.2441957992291576e+02  1.2283119517999621e+02  1.2128918938136023e+02  1.1976943321875831e+02  1.1827163957718510e+02  1.1679634905947240e+02  1.1534432606699777e+02  1.1391644093273372e+02  1.1251359133390910e+02  1.1113667610937685e+02  1.0978658494424879e+02  1.0846419333666852e+02  1.0717035971522620e+02  1.0590592359695607e+02  1.0467170431128955e+02  1.0346850005728363e+02  1.0229708716962800e+02  1.0115821952291627e+02  1.0005262803252545e+02  9.8981020226610553e+01  9.7944079873064481e+01  9.6942466650847976e+01  9.5976815858460114e+01  9.5047738154408805e+01  9.4155819325854594e+01  9.3301620082445140e+01  9.2485675872910832e+01  9.1708496722354681e+01  9.0970567088423962e+01  9.0272345734721398e+01  8.9614265619946210e+01  8.8996733801349905e+01  8.8420131351174973e+01  8.7884813284813703e+01  8.7391108499491338e+01  8.6939319722339860e+01  8.6529723466795772e+01  8.6162569996321366e+01  8.5838083294518498e+01  8.5556461040779325e+01  8.5317874590694757e+01  8.5122468960522824e+01  8.4970362815105247e+01  8.4861648458707222e+01  8.4796391828347424e+01  8.4774632489279313e+01  8.4796383632379502e+01  8.4861632073295382e+01  8.4970338253303822e+01  8.5122436241930956e+01  8.5317833741478452e+01  8.5556412093701439e+01  8.5838026288976479e+01  8.6162504978394580e+01  8.6529650489301602e+01  8.6939238844900999e+01  8.7391019788614614e+01  8.7884716813982251e+01  8.8420027200956028e+01  8.8996622059520092e+01  8.9614146381637696e+01  9.0272219102592445e+01  9.0970433172858421e+01  9.1708355641695320e+01  9.2485527753732384e+01  9.3301465059875270e+01  9.4155657543948493e+01  9.5047569766587387e+01  9.5976641028017298e+01  9.6942285551535136e+01  9.7943892689751465e+01  9.8980827156016375e+01  1.0005242928399674e+02  1.0115801531920313e+02  1.0229687774756563e+02  1.0346828566821507e+02  1.0467148522097463e+02  1.0590570008458562e+02  1.0717013207097104e+02  1.0846396185715065e+02  1.0978634992547991e+02  1.1113643783764725e+02  1.1251335007823609e+02  1.1391619695342088e+02  1.1534407970113462e+02  1.1679610113214808e+02  1.1827139243869706e+02  1.1976917746397045e+02  1.2128892724818216e+02  1.2283093056974407e+02  1.2441926523714849e+02  1.2442527260872150e+02  1.2442785857093389e+02  1.2442899724451965e+02  1.2442961262624956e+02  1.2443045641277681e+02  1.2443145362412548e+02  1.2443224632790285e+02  1.2443287007112647e+02  1.2443401947496480e+02  1.2443630520654989e+02  1.2444035511210862e+02  1.2444699939227600e+02  1.2445729539636099e+02  1.2447227628086182e+02  1.2449284832794081e+02  1.2451958777924797e+02  1.2455295791106177e+02  1.2459318219410780e+02  1.2464037437008696e+02  1.2469462263601774e+02  1.2475595259626414e+02  1.2482437127332854e+02  1.2489987422128999e+02  1.2498244963443227e+02  1.2507208076145169e+02  1.2516874728647906e+02  1.2527242611327100e+02  1.2538309180645018e+02  1.2550071683358955e+02  1.2562527170284639e+02  1.2575672503739236e+02  1.2589504358373489e+02  1.2604019217504309e+02  1.2619213370835874e+02  1.2635082916033657e+02  1.2651623761037804e+02  1.2668831624512633e+02  1.2686702034776242e+02  1.2705230327498384e+02  1.2724411642902265e+02  1.2744240925360472e+02  1.2764712926144824e+02  1.2785822205331874e+02  1.2807563129531516e+02  1.2829929866991341e+02  1.2852916384056127e+02  1.2876516445404167e+02  1.2900723616895220e+02  1.2925531267135457e+02  1.2950932565302787e+02  1.2976920477146118e+02  1.3003487763508204e+02  1.3030626983677843e+02  1.3058330500494051e+02  1.3086590481539548e+02  1.3115398895209532e+02  1.3144747506239304e+02  1.3174627875064246e+02  1.3205031359876099e+02  1.3235949116948842e+02  1.3267372098291662e+02  1.3299291050540879e+02  1.3331696517772673e+02  1.3364578845823871e+02  1.3397928184500310e+02  1.3431734486955142e+02  1.3465987507341259e+02  1.3500676798488553e+02  1.3535791712058338e+02  1.3571321401486574e+02  1.3607254824325628e+02  1.3643580741996391e+02  1.3680287719830315e+02  1.3717364128912325e+02  1.3754798145516637e+02  1.3792577745815078e+02  1.3830690700214765e+02  1.3869124572070814e+02  1.3907866723777801e+02  1.3946904315318812e+02  1.3986224264974535e+02  1.4025813057633712e+02  1.4065657709449903e+02  1.4105744401122476e+02  1.4146059835236545e+02  1.4186587526187699e+02  1.4227314754124868e+02  1.4268225848548519e+02  1.4309304727970394e+02  1.4350535444571909e+02  1.4391900203366887e+02  1.4433379632708940e+02  1.4474950214365552e+02  1.4516584499249740e+02  1.4558244855018586e+02  1.4599876640993608e+02  1.4641396913467486e+02  1.4682674621486245e+02  1.4723503517144997e+02  1.4763572547506541e+02  1.4802456578300644e+02  1.4839736978146678e+02  1.4875059243239158e+02  1.4908452291849926e+02  1.4940040172761880e+02  1.4970357600648191e+02  1.5000000000000000e+02  1.5000000000000000e+02  1.4999999999999997e+02  1.5000000000000003e+02  1.5000000000000003e+02  1.5000000000000000e+02  1.5000000000000000e+02  1.5000000000000000e+02  1.5000000000000000e+02  1.5000000000000000e+02  1.5000000000000000e+02  1.5000000000000000e+02  1.5000000000000000e+02  1.5000000000000000e+02  1.5000000000000000e+02  1.5000000000000000e+02  1.5000000000000000e+02  1.5000000000000003e+02  1.5000000000000000e+02  1.5000000000000000e+02  1.5000000000000000e+02  1.5000000000000000e+02  1.5000000000000000e+02  1.5000000000000000e+02  1.5000000000000000e+02  1.5000000000000000e+02  1.5000000000000000e+02  1.5000000000000000e+02  1.5000000000000000e+02  1.5000000000000000e+02  1.5000000000000000e+02  1.5000000000000000e+02  1.5000000000000000e+02  1.5000000000000000e+02  1.5000000000000000e+02  1.5000000000000000e+02  1.5000000000000000e+02  1.5000000000000000e+02  1.5000000000000000e+02  1.5000000000000000e+02  1.5000000000000000e+02  1.5000000000000000e+02  1.5000000000000000e+02  1.5000000000000000e+02  1.4999999999999997e+02  1.5000000000000000e+02  1.5000000000000000e+02  1.5000000000000000e+02  1.5000000000000000e+02  1.5000000000000000e+02  1.5000000000000000e+02  1.5000000000000000e+02  1.5000000000000000e+02  1.5000000000000000e+02  1.5000000000000000e+02  1.5000000000000000e+02  1.5000000000000000e+02  1.5000000000000003e+02  1.5000000000000000e+02  1.5000000000000000e+02  1.5000000000000000e+02  1.5000000000000000e+02  1.5000000000000000e+02  1.5000000000000000e+02  1.5000000000000000e+02  1.5000000000000000e+02  1.5000000000000000e+02  1.5000000000000000e+02  1.5000000000000000e+02  1.5000000000000000e+02  1.5000000000000000e+02  1.5000000000000000e+02  1.5000000000000000e+02  1.5000000000000000e+02  1.5000000000000000e+02  1.5000000000000000e+02  1.5000000000000000e+02  1.5000000000000000e+02  1.5000000000000000e+02  1.5000000000000000e+02  1.5000000000000000e+02  1.5000000000000000e+02  1.5000000000000000e+02  1.5000000000000000e+02  1.5000000000000000e+02  1.5000000000000000e+02  1.5000000000000000e+02  1.5000000000000000e+02  1.5000000000000000e+02  1.5000000000000000e+02  1.5000000000000000e+02  1.5000000000000000e+02  1.5000000000000000e+02  1.5000000000000000e+02  1.5000000000000000e+02  1.5000000000000000e+02  1.5000000000000000e+02  1.5000000000000000e+02  1.5000000000000000e+02  1.2438905954001308e+02  1.2439405234241094e+02  1.2440961089983868e+02  1.2443378928951920e+02  1.2446584410196226e+02  1.2450542269835047e+02  1.2455235528352202e+02  1.2460655036151635e+02  1.2466794819310948e+02  1.2473650162368119e+02  1.2481219844259543e+02  1.2489501122398048e+02  1.2498490026755141e+02  1.2508187516244926e+02  1.2518586118094186e+02  1.2529687330982540e+02  1.2541486860202740e+02  1.2553981182604258e+02  1.2567167276155189e+02  1.2581041662121493e+02  1.2595604123963754e+02  1.2610845534206095e+02  1.2626766520700184e+02  1.2643359419220620e+02  1.2660623498498117e+02  1.2678551251374371e+02  1.2697138471053816e+02  1.2716384517967015e+02  1.2736277336708568e+02  1.2756817830920245e+02  1.2777995458171384e+02  1.2799809065523417e+02  1.2822250412962742e+02  1.2845313826927705e+02  1.2868995033222868e+02  1.2893282624196510e+02  1.2918175648130673e+02  1.2943663650887601e+02  1.2969740389924252e+02  1.2996402366917309e+02  1.3023633946737382e+02  1.3051436181398608e+02  1.3079793509553642e+02  1.3108705067107977e+02  1.3138158199525313e+02  1.3168145712499864e+02  1.3198658654871849e+02  1.3229687611197090e+02  1.3261226187649157e+02  1.3293262327811411e+02  1.3325787404354153e+02  1.3358791652409883e+02  1.3392265431654727e+02  1.3426198786530875e+02  1.3460580409739990e+02  1.3495402711123529e+02  1.3530651985322189e+02  1.3566318294325973e+02  1.3602390820819468e+02  1.3638857954645974e+02  1.3675711703809583e+02  1.3712930998464051e+02  1.3750516017952575e+02  1.3788446598503171e+02  1.3826712695198799e+02  1.3865306518987163e+02  1.3904204102703670e+02  1.3943406071993218e+02  1.3982886854610555e+02  1.4022645451896042e+02  1.4062659534879589e+02  1.4102918320123521e+02  1.4143411907762933e+02  1.4184118154066971e+02  1.4225028971743043e+02  1.4266130568602333e+02  1.4307405983571252e+02  1.4348842417595341e+02  1.4390427800976374e+02  1.4432142761029002e+02  1.4473982841557415e+02  1.4515949031696775e+02  1.4558030552911586e+02  1.4600252785716393e+02  1.4642667409544791e+02  1.4685389318938266e+02  1.4728697588899203e+02  1.4773232076311194e+02  1.4821088051453566e+02  1.4923398601084361e+02  1.4944594195140175e+02  1.4958081182598440e+02  1.4967340631488415e+02  1.4973876168766711e+02  1.4978537151931323e+02  1.4981867255248849e+02  1.4984238427882144e+02  1.4985912774470870e+02  1.4987078853639159e+02  1.4987873622623547e+02  1.4988396893540008e+02  1.4988722148653011e+02  1.4988902873129865e+02  1.4988978570787731e+02  1.4988978344206620e+02  1.4988923536342998e+02  1.4988830354094966e+02  1.4988710266630352e+02  1.4988572107983336e+02  1.4988422267285625e+02  1.4988265695307388e+02  1.4988105828938100e+02  1.4987945653459627e+02  1.4987787155050731e+02  1.4987631906811691e+02  1.4987481065533612e+02  1.4987335765614137e+02  1.4987196586804222e+02  1.4987064035777587e+02  1.4986938726671463e+02  1.4986820977166877e+02  1.4986711085275735e+02  1.4986609298507662e+02  1.4986515821241142e+02  1.4986430823175539e+02  1.4986354445807993e+02  1.4986286807251935e+02  1.4986228005818413e+02  1.4986178122790471e+02  1.4986137223942868e+02  1.4986105361198915e+02  1.4986082573845252e+02  1.4986068890427086e+02  1.4986064328070188e+02  1.4986068891768988e+02  1.4986082582066604e+02  1.4986105371973790e+02  1.4986137236521247e+02  1.4986178137087217e+02  1.4986228022636925e+02  1.4986286839381711e+02  1.4986354486485328e+02  1.4986430864035080e+02  1.4986515841781929e+02  1.4986609279994778e+02  1.4986711074624861e+02  1.4986820998762684e+02  1.4986938791830713e+02  1.4987064154803198e+02  1.4987196647629685e+02  1.4987335815434108e+02  1.4987481098342485e+02  1.4987631898833536e+02  1.4987787138306794e+02  1.4987945678823215e+02  1.4988105748582146e+02  1.4988265511889202e+02  1.4988422124426873e+02  1.4988571915143936e+02  1.4988710043551725e+02  1.4988830025754211e+02  1.4988923147606835e+02  1.4988977708755922e+02  1.4988977528280333e+02  1.4988901338034691e+02  1.4988720099874752e+02  1.4988394352668294e+02  1.4987870576140941e+02  1.4987076374447318e+02  1.4985908912011729e+02  1.4984233571510353e+02  1.4981863754776467e+02  1.4978534515049682e+02  1.4973875824695534e+02  1.4967345303182799e+02  1.4958095434786364e+02  1.4944593882233119e+02  1.4923236394841479e+02  1.4821102485387655e+02  1.4773288086966087e+02  1.4728743536331186e+02  1.4685430109133540e+02  1.4642701989094925e+02  1.4600285133096131e+02  1.4558062783603083e+02  1.4515982029548312e+02  1.4474015438235165e+02  1.4432175332835891e+02  1.4390459326332976e+02  1.4348873769176535e+02  1.4307438054055351e+02  1.4266159270693487e+02  1.4225062967202177e+02  1.4184148862280810e+02  1.4143440602011384e+02  1.4102949632225349e+02  1.4062691021726133e+02  1.4022675318532001e+02  1.3982916254352563e+02  1.3943436781468441e+02  1.3904234153124710e+02  1.3865336505495088e+02  1.3826742881716956e+02  1.3788476485569220e+02  1.3750545850757902e+02  1.3712960600441087e+02  1.3675741326636214e+02  1.3638887540877514e+02  1.3602420113443159e+02  1.3566347206487319e+02  1.3530681355305188e+02  1.3495432561084928e+02  1.3460609581969248e+02  1.3426227952447459e+02  1.3392294357027774e+02  1.3358815843466917e+02  1.3325827679765507e+02  1.3293284518174110e+02  1.3261255988564866e+02  1.3229717831878824e+02  1.3198689572831833e+02  1.3168172248620405e+02  1.3138187103599600e+02  1.3108734035293699e+02  1.3079823479661491e+02  1.3051463793402743e+02  1.3023662222791071e+02  1.2996429324666741e+02  1.2969770109218959e+02  1.2943692568271260e+02  1.2918203909393648e+02  1.2893310860313989e+02  1.2869024071312313e+02  1.2845341610135648e+02  1.2822279504895346e+02  1.2799838628929214e+02  1.2778024235467879e+02  1.2756846414211824e+02  1.2736305831523839e+02  1.2716412773515970e+02  1.2697167354058925e+02  1.2678579410908081e+02  1.2660651159671670e+02  1.2643387721842311e+02  1.2626794884545360e+02  1.2610873824726843e+02  1.2595632532591237e+02  1.2581069503011929e+02  1.2567194624300257e+02  1.2554008261477543e+02  1.2541514349780671e+02  1.2529714661217588e+02  1.2518611065463604e+02  1.2508215273428236e+02  1.2498521816383071e+02  1.2489530307112994e+02  1.2481248191209167e+02  1.2473678301060234e+02  1.2466823306382335e+02  1.2460684404293093e+02  1.2455263716868745e+02  1.2450568954517941e+02  1.2446611108594789e+02  1.2443407079464573e+02  1.2440988791581235e+02  1.2439427789127375e+02  1.2438927478451231e+02  1.4893010336674089e+02  1.4896539296616189e+02  1.4975697285436226e+02  1.4978084846500849e+02  1.2496671289530074e+02  1.4989898674272621e+02  1.4988290605076139e+02  1.4494684104857427e+02  1.4986880937050191e+02  1.2466426425143365e+02  1.3215676110968144e+02  1.3514915741476756e+02  1.4984975678972015e+02  1.2460506076286391e+02  1.3622123316353861e+02  1.3695731689464279e+02  1.3770800605409175e+02  1.4982249060587498e+02  1.3847547240966435e+02  1.3965199507971820e+02  1.4978454602622585e+02  1.3279140037804802e+02  1.4083713415770941e+02  1.4164931866618292e+02  1.4287414153756197e+02  1.4664218468933177e+02  1.4973167628451790e+02  1.2447678318367647e+02  1.2447706037681915e+02  1.4370159023063096e+02  1.4794563071131549e+02  1.3377313386328734e+02  1.2441637127280445e+02  1.3445095873024260e+02  1.4921519320031834e+02  1.4412588273435611e+02  1.4919690671386942e+02  1.2441558219451406e+02  1.4495776085321526e+02  1.4955436817753653e+02  1.4955407009731712e+02  1.4840242173296573e+02  1.4580383761606086e+02  1.4706537786231226e+02  1.4579235000062113e+02  1.2455595716855912e+02  1.2444216005620008e+02  1.2480125727510878e+02  1.4990594818105021e+02  1.2441919254111986e+02  1.2516044016764097e+02  1.4997728053737677e+02  1.4990805690012112e+02  1.2538223272703500e+02  1.2442756571439463e+02  1.3849751495038868e+02  1.4997898990427009e+02  1.4990761843343950e+02  1.2563186568070869e+02  1.2472947270408207e+02  1.4990588799542385e+02  1.2442812055964805e+02  1.4997950538651227e+02  1.2590908770988968e+02  1.4990355149008414e+02  1.2488072261567008e+02  1.2621362223474151e+02  1.4329849155162646e+02  1.3155183870208563e+02  1.4990098825570263e+02  1.4005888716282905e+02  1.3072216385072201e+02  1.2506095725141834e+02  1.2654515253843141e+02  1.4998044524481654e+02  1.4989841230769269e+02  1.2643051081226575e+02  1.4247299965278157e+02  1.2690333640330613e+02  1.4998033079203947e+02  1.4989594540422624e+02  1.2989948406300300e+02  1.4124731485807720e+02  1.2728780838744461e+02  1.4989365945070483e+02  1.2695670828177428e+02  1.4998042515241269e+02  1.2769815443728392e+02  1.4989159726265632e+02  1.2734036020858304e+02  1.2813394426158661e+02  1.2888348800081769e+02  1.4988978662668762e+02  1.2859471604430934e+02  1.4988824529657160e+02  1.2841145504390653e+02  1.4997997803401566e+02  1.2907996369507035e+02  1.4988698534122403e+02  1.2796410781343724e+02  1.2958916153855708e+02  1.3927242139620071e+02  1.4988601504945285e+02  1.3012175201913843e+02  1.4988534006270916e+02  1.3067712703064527e+02  1.4988496393694180e+02  1.2937967457840381e+02  1.2526811474050534e+02  1.3773519445285069e+02  1.4997847475941492e+02  1.3125466943082770e+02  1.3698645475952739e+02  1.4997798459018514e+02  1.2611308090105602e+02  1.3625225779941294e+02  1.4997753377336937e+02  1.2582276461912245e+02  1.4997713100847179e+02  1.3553353387318032e+02  1.2555984297135197e+02  1.4997678178762661e+02  1.3483118207383586e+02  1.3414607011573972e+02  1.4997648964094148e+02  1.3347903377329081e+02  1.4997625689270444e+02  1.4988488862263182e+02  1.3283087680227527e+02  1.4997608521836403e+02  1.4997711909333441e+02  1.3220237153149492e+02  1.4900308472403540e+02  1.3159425821736727e+02  1.3129835841064428e+02  1.4997329713318985e+02  1.3589119733340121e+02  1.2456989101202431e+02  1.3927272246974522e+02  1.4045642695114273e+02  1.4412620108556345e+02  1.4247713861922242e+02  1.3347932793199288e+02  1.4125823422595545e+02  1.4329880516609660e+02  1.4991343832254023e+02  1.3811501915341356e+02  1.3735936404594204e+02  1.4744010669680335e+02  1.2447939394529780e+02  1.3661777531576479e