<?xml version="1.0"?>
<VTKFile type="UnstructuredGrid"  version="0.1"  >
<UnstructuredGrid>
<Piece  NumberOfPoints="11335" NumberOfCells="22258">
<Points>
<DataArray  type="Float64"  NumberOfComponents="3"  format="ascii">0 0 0  0 10 0  0.5 10 0  0.5 9.5 0  9.5 9.5 0  9.5 10 0  10 10 0  10 0 0  0.5 0.5 0  9.5 0.5 0  0 0.09999999999992584 0  0 0.199999999999856 0  0 0.2999999999997771 0  0 0.3999999999996677 0  0 0.4999999999995511 0  0 0.5999999999994683 0  0 0.6999999999993983 0  0 0.7999999999993286 0  0 0.8999999999992587 0  0 0.9999999999991888 0  0 1.099999999999119 0  0 1.199999999999033 0  0 1.299999999998852 0  0 1.399999999998576 0  0 1.499999999998284 0  0 1.599999999997992 0  0 1.6999999999977 0  0 1.799999999997408 0  0 1.899999999997116 0  0 1.999999999996825 0  0 2.099999999996533 0  0 2.199999999996241 0  0 2.299999999995949 0  0 2.399999999995657 0  0 2.499999999995365 0  0 2.599999999995073 0  0 2.699999999994782 0  0 2.79999999999449 0  0 2.899999999994198 0  0 2.999999999993906 0  0 3.099999999993614 0  0 3.199999999993322 0  0 3.299999999993029 0  0 3.399999999992738 0  0 3.499999999992446 0  0 3.599999999992154 0  0 3.699999999991863 0  0 3.799999999991571 0  0 3.899999999991278 0  0 3.999999999991022 0  0 4.099999999991035 0  0 4.199999999991187 0  0 4.299999999991338 0  0 4.399999999991491 0  0 4.499999999991642 0  0 4.599999999991795 0  0 4.699999999991947 0  0 4.799999999992099 0  0 4.89999999999225 0  0 4.999999999992403 0  0 5.099999999992555 0  0 5.199999999992706 0  0 5.299999999992858 0  0 5.39999999999301 0  0 5.499999999993161 0  0 5.599999999993313 0  0 5.699999999993466 0  0 5.799999999993618 0  0 5.899999999993771 0  0 5.999999999993922 0  0 6.099999999994074 0  0 6.199999999994227 0  0 6.299999999994378 0  0 6.39999999999453 0  0 6.499999999994682 0  0 6.599999999994833 0  0 6.699999999994986 0  0 6.799999999995138 0  0 6.899999999995289 0  0 6.999999999995442 0  0 7.099999999995594 0  0 7.199999999995747 0  0 7.299999999995897 0  0 7.39999999999605 0  0 7.499999999996202 0  0 7.599999999996353 0  0 7.699999999996505 0  0 7.799999999996658 0  0 7.899999999996808 0  0 7.999999999996962 0  0 8.099999999997113 0  0 8.199999999997265 0  0 8.299999999997418 0  0 8.399999999997569 0  0 8.499999999997721 0  0 8.599999999997873 0  0 8.699999999998024 0  0 8.799999999998176 0  0 8.899999999998329 0  0 8.999999999998479 0  0 9.099999999998634 0  0 9.199999999998786 0  0 9.299999999998937 0  0 9.399999999999089 0  0 9.499999999999241 0  0 9.599999999999392 0  0 9.699999999999545 0  0 9.799999999999697 0  0 9.899999999999848 0  0.09999999999977893 10 0  0.1999999999994874 10 0  0.2999999999994734 10 0  0.3999999999997367 10 0  0.5 9.9 0  0.5 9.800000000000001 0  0.5 9.699999999999999 0  0.5 9.6 0  0.5999999999997725 9.5 0  0.6999999999995451 9.5 0  0.7999999999993451 9.5 0  0.8999999999991337 9.5 0  0.9999999999989062 9.5 0  1.099999999998702 9.5 0  1.199999999998578 9.5 0  1.299999999998473 9.5 0  1.39999999999837 9.5 0  1.499999999998266 9.5 0  1.599999999998133 9.5 0  1.699999999997873 9.5 0  1.799999999997521 9.5 0  1.899999999997171 9.5 0  1.99999999999682 9.5 0  2.099999999996469 9.5 0  2.199999999996118 9.5 0  2.299999999995767 9.5 0  2.399999999995416 9.5 0  2.499999999995065 9.5 0  2.599999999994715 9.5 0  2.699999999994364 9.5 0  2.799999999994013 9.5 0  2.899999999993662 9.5 0  2.999999999993312 9.5 0  3.099999999992961 9.5 0  3.19999999999261 9.5 0  3.299999999992259 9.5 0  3.399999999991908 9.5 0  3.499999999991557 9.5 0  3.599999999991207 9.5 0  3.699999999990856 9.5 0  3.799999999990505 9.5 0  3.899999999990154 9.5 0  3.999999999989803 9.5 0  4.099999999989453 9.5 0  4.199999999989102 9.5 0  4.299999999988751 9.5 0  4.3999999999884 9.5 0  4.49999999998805 9.5 0  4.599999999987698 9.5 0  4.699999999987348 9.5 0  4.799999999986997 9.5 0  4.899999999986646 9.5 0  4.999999999986469 9.5 0  5.099999999986931 9.5 0  5.199999999987567 9.5 0  5.299999999988204 9.5 0  5.39999999998884 9.5 0  5.499999999989477 9.5 0  5.599999999990114 9.5 0  5.69999999999075 9.5 0  5.799999999991387 9.5 0  5.899999999992023 9.5 0  5.999999999992659 9.5 0  6.099999999993296 9.5 0  6.199999999993933 9.5 0  6.299999999994569 9.5 0  6.399999999995206 9.5 0  6.499999999995842 9.5 0  6.599999999996479 9.5 0  6.699999999997114 9.5 0  6.799999999997752 9.5 0  6.899999999998387 9.5 0  6.999999999999023 9.5 0  7.099999999999659 9.5 0  7.200000000000294 9.5 0  7.300000000000929 9.5 0  7.400000000001565 9.5 0  7.5000000000022 9.5 0  7.600000000002836 9.5 0  7.700000000003472 9.5 0  7.800000000004108 9.5 0  7.900000000004743 9.5 0  8.000000000005148 9.5 0  8.100000000004911 9.5 0  8.200000000004561 9.5 0  8.300000000004211 9.5 0  8.400000000003859 9.5 0  8.500000000003508 9.5 0  8.600000000003158 9.5 0  8.700000000002806 9.5 0  8.800000000002456 9.5 0  8.900000000002105 9.5 0  9.000000000001755 9.5 0  9.100000000001405 9.5 0  9.200000000001053 9.5 0  9.300000000000701 9.5 0  9.40000000000035 9.5 0  9.5 9.6 0  9.5 9.699999999999999 0  9.5 9.800000000000001 0  9.5 9.9 0  9.6 10 0  9.699999999999999 10 0  9.800000000000001 10 0  9.9 10 0  10 9.9 0  10 9.799999999999999 0  10 9.699999999999999 0  10 9.6 0  10 9.499999999999998 0  10 9.399999999999999 0  10 9.299999999999999 0  10 9.199999999999999 0  10 9.099999999999998 0  10 8.999999999999998 0  10 8.899999999999999 0  10 8.799999999999997 0  10 8.699999999999998 0  10 8.599999999999998 0  10 8.499999999999996 0  10 8.399999999999997 0  10 8.299999999999997 0  10 8.199999999999998 0  10 8.099999999999998 0  10 7.999999999999997 0  10 7.899999999999997 0  10 7.799999999999997 0  10 7.699999999999998 0  10 7.599999999999998 0  10 7.499999999999998 0  10 7.399999999999997 0  10 7.299999999999997 0  10 7.199999999999998 0  10 7.099999999999998 0  10 6.999999999999997 0  10 6.899999999999998 0  10 6.799999999999997 0  10 6.699999999999998 0  10 6.599999999999998 0  10 6.499999999999998 0  10 6.399999999999997 0  10 6.299999999999998 0  10 6.199999999999998 0  10 6.099999999999998 0  10 5.999999999999997 0  10 5.899999999999998 0  10 5.799999999999998 0  10 5.699999999999998 0  10 5.599999999999998 0  10 5.499999999999998 0  10 5.399999999999999 0  10 5.299999999999999 0  10 5.199999999999998 0  10 5.099999999999999 0  10 4.999999999999999 0  10 4.899999999999998 0  10 4.799999999999999 0  10 4.699999999999998 0  10 4.599999999999999 0  10 4.499999999999998 0  10 4.399999999999999 0  10 4.299999999999998 0  10 4.199999999999999 0  10 4.099999999999998 0  10 3.999999999999999 0  10 3.899999999999999 0  10 3.799999999999999 0  10 3.699999999999999 0  10 3.599999999999999 0  10 3.499999999999997 0  10 3.399999999999998 0  10 3.299999999999999 0  10 3.199999999999998 0  10 3.099999999999998 0  10 2.999999999999999 0  10 2.899999999999999 0  10 2.799999999999998 0  10 2.699999999999998 0  10 2.599999999999998 0  10 2.499999999999999 0  10 2.399999999999999 0  10 2.299999999999999 0  10 2.199999999999999 0  10 2.1 0  10 1.999999999999998 0  10 1.899999999999999 0  10 1.799999999999999 0  10 1.699999999999999 0  10 1.6 0  10 1.5 0  10 1.4 0  10 1.299999999999999 0  10 1.199999999999999 0  10 1.099999999999998 0  10 0.9999999999999982 0  10 0.9000000000000004 0  10 0.7999999999999989 0  10 0.6999999999999993 0  10 0.6000000000000014 0  10 0.5 0  10 0.3999999999999986 0  10 0.2999999999999989 0  10 0.1999999999999993 0  10 0.09999999999999964 0  9.9 0 0  9.799999999999999 0 0  9.699999999999999 0 0  9.6 0 0  9.499999999999998 0 0  9.399999999999999 0 0  9.299999999999999 0 0  9.199999999999999 0 0  9.099999999999998 0 0  8.999999999999998 0 0  8.899999999999999 0 0  8.799999999999997 0 0  8.699999999999998 0 0  8.599999999999998 0 0  8.499999999999996 0 0  8.399999999999997 0 0  8.299999999999997 0 0  8.199999999999998 0 0  8.099999999999998 0 0  7.999999999999997 0 0  7.899999999999997 0 0  7.799999999999997 0 0  7.699999999999998 0 0  7.599999999999998 0 0  7.499999999999998 0 0  7.399999999999997 0 0  7.299999999999997 0 0  7.199999999999998 0 0  7.099999999999998 0 0  6.999999999999997 0 0  6.899999999999998 0 0  6.799999999999997 0 0  6.699999999999998 0 0  6.599999999999998 0 0  6.499999999999998 0 0  6.399999999999997 0 0  6.299999999999998 0 0  6.199999999999998 0 0  6.099999999999998 0 0  5.999999999999997 0 0  5.899999999999998 0 0  5.799999999999998 0 0  5.699999999999998 0 0  5.599999999999998 0 0  5.499999999999998 0 0  5.399999999999999 0 0  5.299999999999999 0 0  5.199999999999998 0 0  5.099999999999999 0 0  4.999999999999999 0 0  4.899999999999998 0 0  4.799999999999999 0 0  4.699999999999998 0 0  4.599999999999999 0 0  4.499999999999998 0 0  4.399999999999999 0 0  4.299999999999998 0 0  4.199999999999999 0 0  4.099999999999998 0 0  3.999999999999999 0 0  3.899999999999999 0 0  3.799999999999999 0 0  3.699999999999999 0 0  3.599999999999999 0 0  3.499999999999997 0 0  3.399999999999998 0 0  3.299999999999999 0 0  3.199999999999998 0 0  3.099999999999998 0 0  2.999999999999999 0 0  2.899999999999999 0 0  2.799999999999998 0 0  2.699999999999998 0 0  2.599999999999998 0 0  2.499999999999999 0 0  2.399999999999999 0 0  2.299999999999999 0 0  2.199999999999999 0 0  2.1 0 0  1.999999999999998 0 0  1.899999999999999 0 0  1.799999999999999 0 0  1.699999999999999 0 0  1.6 0 0  1.5 0 0  1.4 0 0  1.299999999999999 0 0  1.199999999999999 0 0  1.099999999999998 0 0  0.9999999999999982 0 0  0.9000000000000004 0 0  0.7999999999999989 0 0  0.6999999999999993 0 0  0.6000000000000014 0 0  0.5 0 0  0.3999999999999986 0 0  0.2999999999999989 0 0  0.1999999999999993 0 0  0.09999999999999964 0 0  9.5 9.400000000000382 0  9.5 9.300000000000763 0  9.5 9.200000000001145 0  9.5 9.100000000001527 0  9.5 9.000000000001908 0  9.5 8.90000000000229 0  9.5 8.800000000002671 0  9.5 8.700000000003053 0  9.5 8.600000000003435 0  9.5 8.500000000003816 0  9.5 8.400000000004198 0  9.5 8.30000000000458 0  9.5 8.200000000004961 0  9.5 8.100000000005343 0  9.5 8.000000000005723 0  9.5 7.90000000000610
[...]
<PointData  Scalars="f_18"> 
<DataArray  type="Float64"  Name="f_18"  format="ascii">1.5000000000000000e+02  1.0431775807331643e+02  1.0431233116986016e+02  1.0426718477114788e+02  1.0426662660129458e+02  1.0431185556585213e+02  1.0431727084165840e+02  1.5000000000000000e+02  1.4781320465889564e+02  1.4781322717007669e+02  1.4945384855556989e+02  1.4889491366709780e+02  1.4831275181034420e+02  1.4769818394016235e+02  1.4704701065258325e+02  1.4636019474102065e+02  1.4564374744391793e+02  1.4490586377391662e+02  1.4415415374606044e+02  1.4339437689543834e+02  1.4263039599806342e+02  1.4186467935923875e+02  1.4109880354523952e+02  1.4033381431947672e+02  1.3957045004177675e+02  1.3880927199457560e+02  1.3805074047735684e+02  1.3729525457204491e+02  1.3654317650012140e+02  1.3579484335187087e+02  1.3505057682675061e+02  1.3431067938620029e+02  1.3357544583112940e+02  1.3284516556022882e+02  1.3212011692426881e+02  1.3140057345516593e+02  1.3068679119457428e+02  1.2997902835414257e+02  1.2927753709395651e+02  1.2858255220360164e+02  1.2789431054247753e+02  1.2721304139224374e+02  1.2653896683803063e+02  1.2587230141415239e+02  1.2521325283618377e+02  1.2456202438137623e+02  1.2391881203419948e+02  1.2328380926749816e+02  1.2265719147086446e+02  1.2203913496589468e+02  1.2142981480989481e+02  1.2082939681063894e+02  1.2023803987834638e+02  1.1965589606793660e+02  1.1908311172183453e+02  1.1851982611716544e+02  1.1796616403258386e+02  1.1742232572076846e+02  1.1688837300819527e+02  1.1636440356343986e+02  1.1585058760079896e+02  1.1534701512219411e+02  1.1485370295560095e+02  1.1437131555855355e+02  1.1389875053364530e+02  1.1343730555517244e+02  1.1298650203226475e+02  1.1254651453915827e+02  1.1211743090173991e+02  1.1169932902107266e+02  1.1129228270394024e+02  1.1089636180400703e+02  1.1051162615818160e+02  1.1013804398512117e+02  1.0977628276520929e+02  1.0942510551376442e+02  1.0908586221928564e+02  1.0875798652842651e+02  1.0844152574265470e+02  1.0813715355435161e+02  1.0784359163379699e+02  1.0756220418240541e+02  1.0729240616744148e+02  1.0703433132566943e+02  1.0678802074903702e+02  1.0655350653746306e+02  1.0633081629437908e+02  1.0611996229047779e+02  1.0592098410632994e+02  1.0573395884981014e+02  1.0555887712060400e+02  1.0539569904128959e+02  1.0524444657673881e+02  1.0510518836900654e+02  1.0497791800339370e+02  1.0486263483782038e+02  1.0475932810433356e+02  1.0466796489319006e+02  1.0458848300386316e+02  1.0452077915832425e+02  1.0446459292370676e+02  1.0441949971023638e+02  1.0438479442771740e+02  1.0435970836145772e+02  1.0434225416120300e+02  1.0433106413744022e+02  1.0432421917410272e+02  1.0432030534097731e+02  1.0431834447106691e+02  1.0431728315154326e+02  1.0431594206374278e+02  1.0431426825953410e+02  1.0431285240120008e+02  1.0431184834463600e+02  1.0431000091050009e+02  1.0430562365474434e+02  1.0429573738929794e+02  1.0163779814462879e+02  9.9065404899201837e+01  9.6538196509510740e+01  9.4055855076480157e+01  9.1619303676300049e+01  8.9229761707821325e+01  8.6888588106112110e+01  8.4597138545339078e+01  8.2356720427945163e+01  8.0168576747510215e+01  7.8033879333315355e+01  7.5953725978030477e+01  7.3929139568124597e+01  7.1961068416466702e+01  7.0050387393589446e+01  6.8197899629168006e+01  6.6404338642537013e+01  6.4670370807914168e+01  6.2996598086419084e+01  6.1383560972443973e+01  5.9831741611352484e+01  5.8341567051466100e+01  5.6913412597314043e+01  5.5547605233993565e+01  5.4244427094689740e+01  5.3004118945215090e+01  5.1826883661009049e+01  5.0712889673484071e+01  4.9662274363970226e+01  4.8675147384827945e+01  4.7751593888583500e+01  4.6891677647205249e+01  4.6095444044880274e+01  4.5362922928876486e+01  4.4694131304277228e+01  4.4089075859561163e+01  4.3547755311159527e+01  4.3070162556261259e+01  4.2656286624250363e+01  4.2306114418250218e+01  4.2019632239315584e+01  4.1796827086858485e+01  4.1637687729919108e+01  4.1542205544897051e+01  4.1510375116351533e+01  4.1542194598456646e+01  4.1637665835665125e+01  4.1796794242100383e+01  4.2019588440160533e+01  4.2306059659775265e+01  4.2656220900732897e+01  4.3070085861467305e+01  4.3547667638691465e+01  4.4088977203264058e+01  4.4694021658706660e+01  4.5362802289827577e+01  4.6095312409980352e+01  4.6891535016572455e+01  4.7751440265553391e+01  4.8674982776752628e+01  4.9662098783093079e+01  5.0712703137896789e+01  5.1826686195696269e+01  5.3003910583193935e+01  5.4244207878254194e+01  5.5547375216070392e+01  5.6913171842941338e+01  5.8341315639398708e+01  5.9831479635799617e+01  6.1383288544928760e+01  6.2996315337735204e+01  6.4670077890123281e+01  6.6404035730896510e+01  6.8197586923794518e+01  7.0050065120524380e+01  7.1960736827630043e+01  7.3928798939401432e+01  7.5953376604393085e+01  7.8033521519831353e+01  8.0168210795531749e+01  8.2356346617969706e+01  8.4596757125175102e+01  8.6888199317887143e+01  8.9229365993285114e+01  9.1618902637693083e+01  9.4055453960450635e+01  9.6537773982502287e+01  9.9064965917201562e+01  1.0163735503061861e+02  1.0429520801723463e+02  1.0430520460194195e+02  1.0430948692893732e+02  1.0431136394616765e+02  1.0431238524558944e+02  1.0431379974837357e+02  1.0431547182981554e+02  1.0431680095194776e+02  1.0431785669918905e+02  1.0431981551610808e+02  1.0432370052545002e+02  1.0433056461825254e+02  1.0434179980563515e+02  1.0435917976878362e+02  1.0438443837914159e+02  1.0441909814606052e+02  1.0446412944441637e+02  1.0452031523620241e+02  1.0458803782993796e+02  1.0466749712394592e+02  1.0475885207263383e+02  1.0486215819270942e+02  1.0497744145896161e+02  1.0510471023661334e+02  1.0524396211519492e+02  1.0539518790953268e+02  1.0555837393237483e+02  1.0573350327237392e+02  1.0592055649619435e+02  1.0611951200774195e+02  1.0633034622845483e+02  1.0655303368223531e+02  1.0678754697654581e+02  1.0703385669185604e+02  1.0729193126974837e+02  1.0756173695968799e+02  1.0784323778726058e+02  1.0813639549010779e+02  1.0844116941620183e+02  1.0875751640134999e+02  1.0908539064914075e+02  1.0942474364918350e+02  1.0977552413808785e+02  1.1013767804651781e+02  1.1051114837643482e+02  1.1089587501783654e+02  1.1129179456781903e+02  1.1169884021099325e+02  1.1211694165955740e+02  1.1254602508505070e+02  1.1298601298087023e+02  1.1343682397524920e+02  1.1389837267645993e+02  1.1437056960293495e+02  1.1485332115336148e+02  1.1534652952061960e+02  1.1585009251669356e+02  1.1636390337103784e+02  1.1688785058046237e+02  1.1742181781087118e+02  1.1796568378013357e+02  1.1851932209047999e+02  1.1908260107269209e+02  1.1965538370489165e+02  1.2023752757659706e+02  1.2082888482692628e+02  1.2142930202924516e+02  1.2203862003475949e+02  1.2265667380822501e+02  1.2328329230972199e+02  1.2391829844235350e+02  1.2456150900907899e+02  1.2521273463147378e+02  1.2587177967196008e+02  1.2653844219042627e+02  1.2721251386625664e+02  1.2789377984192244e+02  1.2858201856383644e+02  1.2927700171282947e+02  1.2997849429370748e+02  1.3068625459124237e+02  1.3140003334343803e+02  1.3211956956367018e+02  1.3284461165504493e+02  1.3357488756287844e+02  1.3431013489656178e+02  1.3505001971774016e+02  1.3579428859600270e+02  1.3654262247889503e+02  1.3729469243647179e+02  1.3805017308783667e+02  1.3880870029181062e+02  1.3956988008250318e+02  1.4033323489702880e+02  1.4109821964470046e+02  1.4186409898106294e+02  1.4262981794349750e+02  1.4339380293475489e+02  1.4415359354310644e+02  1.4490534493118446e+02  1.4564328479445047e+02  1.4635954366651583e+02  1.4704637684013403e+02  1.4769722915377548e+02  1.4831261019917724e+02  1.4889479120403337e+02  1.4945360400530413e+02  1.5000000000000000e+02  1.5000000000000000e+02  1.4999999999999997e+02  1.5000000000000003e+02  1.5000000000000003e+02  1.5000000000000000e+02  1.5000000000000000e+02  1.5000000000000000e+02  1.5000000000000000e+02  1.5000000000000000e+02  1.5000000000000000e+02  1.5000000000000000e+02  1.5000000000000000e+02  1.5000000000000000e+02  1.5000000000000000e+02  1.5000000000000000e+02  1.5000000000000000e+02  1.5000000000000003e+02  1.5000000000000000e+02  1.5000000000000000e+02  1.5000000000000000e+02  1.5000000000000000e+02  1.5000000000000000e+02  1.5000000000000000e+02  1.5000000000000000e+02  1.5000000000000000e+02  1.5000000000000000e+02  1.5000000000000000e+02  1.5000000000000000e+02  1.5000000000000000e+02  1.5000000000000000e+02  1.5000000000000000e+02  1.5000000000000000e+02  1.5000000000000000e+02  1.5000000000000000e+02  1.5000000000000000e+02  1.5000000000000000e+02  1.5000000000000000e+02  1.5000000000000000e+02  1.5000000000000000e+02  1.5000000000000000e+02  1.5000000000000000e+02  1.5000000000000000e+02  1.5000000000000000e+02  1.4999999999999997e+02  1.5000000000000000e+02  1.5000000000000000e+02  1.5000000000000000e+02  1.5000000000000000e+02  1.5000000000000000e+02  1.5000000000000000e+02  1.5000000000000000e+02  1.5000000000000000e+02  1.5000000000000000e+02  1.5000000000000000e+02  1.5000000000000000e+02  1.5000000000000000e+02  1.5000000000000003e+02  1.5000000000000000e+02  1.5000000000000000e+02  1.5000000000000000e+02  1.5000000000000000e+02  1.5000000000000000e+02  1.5000000000000000e+02  1.5000000000000000e+02  1.5000000000000000e+02  1.5000000000000000e+02  1.5000000000000000e+02  1.5000000000000000e+02  1.5000000000000000e+02  1.5000000000000000e+02  1.5000000000000000e+02  1.5000000000000000e+02  1.5000000000000000e+02  1.5000000000000000e+02  1.5000000000000000e+02  1.5000000000000000e+02  1.5000000000000000e+02  1.5000000000000000e+02  1.5000000000000000e+02  1.5000000000000000e+02  1.5000000000000000e+02  1.5000000000000000e+02  1.5000000000000000e+02  1.5000000000000000e+02  1.5000000000000000e+02  1.5000000000000000e+02  1.5000000000000000e+02  1.5000000000000000e+02  1.5000000000000000e+02  1.5000000000000000e+02  1.5000000000000000e+02  1.5000000000000000e+02  1.5000000000000000e+02  1.5000000000000000e+02  1.5000000000000000e+02  1.5000000000000000e+02  1.5000000000000000e+02  1.5000000000000000e+02  1.0424478354269625e+02  1.0425326119951234e+02  1.0427945799741543e+02  1.0432011926633760e+02  1.0437400664886640e+02  1.0444052901051252e+02  1.0451941661651279e+02  1.0461052339847816e+02  1.0471376690296736e+02  1.0482907793318958e+02  1.0495644992891366e+02  1.0509586575442670e+02  1.0524726728756305e+02  1.0541069598608912e+02  1.0558605425189243e+02  1.0577337251837561e+02  1.0597262871918281e+02  1.0618377466141659e+02  1.0640679083828192e+02  1.0664164621153731e+02  1.0688836324435296e+02  1.0714684025203967e+02  1.0741709284541778e+02  1.0769905309859884e+02  1.0799271023346303e+02  1.0829801506400435e+02  1.0861490305699705e+02  1.0894339844051734e+02  1.0928336500846957e+02  1.0963481817914831e+02  1.0999765910953872e+02  1.1037186155141254e+02  1.1075737004067757e+02  1.1115410239305663e+02  1.1156203288069857e+02  1.1198102237249155e+02  1.1241106016480904e+02  1.1285204553640415e+02  1.1330389249322691e+02  1.1376657864636512e+02  1.1423989776889877e+02  1.1472387416405977e+02  1.1521831336488351e+02  1.1572319989783851e+02  1.1623838703626927e+02  1.1676376998918651e+02  1.1729923001485683e+02  1.1784463760377608e+02  1.1839991281188294e+02  1.1896488577528248e+02  1.1953942547195700e+02  1.2012339192726813e+02  1.2071664230506555e+02  1.2131902569777975e+02  1.2193036580626492e+02  1.2255054942442266e+02  1.2317935816364869e+02  1.2381662472365147e+02  1.2446217317435401e+02  1.2511580791059959e+02  1.2577739862420511e+02  1.2644657407381402e+02  1.2712333760493986e+02  1.2780733554847937e+02  1.2849838116364364e+02  1.2919633707326116e+02  1.2990075295309609e+02  1.3061164195423351e+02  1.3132851694071996e+02  1.3205135745368989e+02  1.3277973199255169e+02  1.3351342427108133e+02  1.3425223914093010e+02  1.3499573065546238e+02  1.3574373281722967e+02  1.3649596372339420e+02  1.3725207298078277e+02  1.3801179263188209e+02  1.3877486628616242e+02  1.3954088006534741e+02  1.4030972471818342e+02  1.4108138919531814e+02  1.4185559579477049e+02  1.4263277906698210e+02  1.4341383942097420e+02  1.4420083299407207e+02  1.4499886217015504e+02  1.4581960743459393e+02  1.4670162266567431e+02  1.4858600860533392e+02  1.4897562360420764e+02  1.4922312928199190e+02  1.4939269752346428e+02  1.4951205311279921e+02  1.4959686298949146e+02  1.4965715448142211e+02  1.4969978976924352e+02  1.4972960480520825e+02  1.4975007878565475e+02  1.4976373933453084e+02  1.4977242780810136e+02  1.4977750168668874e+02  1.4977994700374589e+02  1.4978049287531346e+02  1.4977967642427697e+02  1.4977789101340682e+02  1.4977543674866155e+02  1.4977252395274795e+02  1.4976931558637219e+02  1.4976592866987340e+02  1.4976245421845633e+02  1.4975895430449060e+02  1.4975548389122531e+02  1.4975207844337430e+02  1.4974876597333505e+02  1.4974556664918069e+02  1.4974250074132325e+02  1.4973957757898117e+02  1.4973680508177188e+02  1.4973419388016490e+02  1.4973174857555625e+02  1.4972947355677880e+02  1.4972737232218029e+02  1.4972544761669599e+02  1.4972370159793437e+02  1.4972213596552518e+02  1.4972075205898074e+02  1.4971955093183473e+02  1.4971853341021088e+02  1.4971770012629014e+02  1.4971705155456266e+02  1.4971658803897682e+02  1.4971630983345887e+02  1.4971621708976019e+02  1.4971630984383242e+02  1.4971658817227981e+02  1.4971705172312568e+02  1.4971770031518835e+02  1.4971853361836901e+02  1.4971955117629244e+02  1.4972075259566461e+02  1.4972213665172333e+02  1.4972370226898306e+02  1.4972544786110188e+02  1.4972737176214423e+02  1.4972947315822307e+02  1.4973174883095970e+02  1.4973419501979819e+02  1.4973680731717710e+02  1.4973957858100817e+02  1.4974250154445693e+02  1.4974556706073352e+02  1.4974876555367737e+02  1.4975207786125239e+02  1.4975548423233781e+02  1.4975895245175855e+02  1.4976245024281556e+02  1.4976592567909566e+02  1.4976931169024749e+02  1.4977251966340742e+02  1.4977543056077266e+02  1.4977788406584952e+02  1.4977966484925133e+02  1.4978047341996850e+02  1.4977991834106231e+02  1.4977746369523464e+02  1.4977238111023757e+02  1.4976368277345256e+02  1.4975003177887189e+02  1.4972953195819375e+02  1.4969969948616213e+02  1.4965709031490820e+02  1.4959681431668474e+02  1.4951204728675012e+02  1.4939278459228441e+02  1.4922339386423650e+02  1.4897561524313582e+02  1.4858302282359583e+02  1.4670187963634555e+02  1.4582063898643463e+02  1.4499970186280248e+02  1.4420158162406602e+02  1.4341447040802618e+02  1.4263336608496650e+02  1.4185618109868639e+02  1.4108198952278730e+02  1.4031031668562943e+02  1.3954147231660616e+02  1.3877543562159505e+02  1.3801235768648047e+02  1.3725265208413049e+02  1.3649647296700661e+02  1.3574434993323129e+02  1.3499628025763067e+02  1.3425274912276168e+02  1.3351398634104160e+02  1.3278029577351882e+02  1.3205188824836881e+02  1.3132903782915699e+02  1.3061218957185687e+02  1.2990128595031479e+02  1.2919686876108014e+02  1.2849891676531220e+02  1.2780786415418547e+02  1.2712386431301010e+02  1.2644709602648784e+02  1.2577792022067845e+02  1.2511632792510530e+02  1.2446268541947613e+02  1.2381712993175462e+02  1.2317987291750158e+02  1.2255107342734206e+02  1.2193087639539023e+02  1.2131953455981986e+02  1.2071714510799312e+02  1.2012380085294360e+02  1.1954014778051130e+02  1.1896526680431570e+02  1.1840043090262166e+02  1.1784516865393840e+02  1.1729976260875246e+02  1.1676422586885300e+02  1.1623888574476068e+02  1.1572370398136422e+02  1.1521882297286105e+02  1.1472434869914620e+02  1.1424038009246037e+02  1.1376704841630803e+02  1.1330440223005215e+02  1.1285254060053451e+02  1.1241154550930840e+02  1.1198150871348697e+02  1.1156252822469705e+02  1.1115458377835776e+02  1.1075786776255597e+02  1.1037236229872765e+02  1.0999814787946522e+02  1.0963530506619276e+02  1.0928384923394282e+02  1.0894387913289880e+02  1.0861538818270760e+02  1.0829848969164938e+02  1.0799318272951618e+02  1.0769953569367240e+02  1.0741757376625925e+02  1.0714732027559245e+02  1.0688884387230758e+02  1.0664211435451554e+02  1.0640725008140714e+02  1.0618423353105392e+02  1.0597309413353408e+02  1.0577383281847857e+02  1.0558647056064140e+02  1.0541116722158004e+02  1.0524780463061727e+02  1.0509635804794944e+02  1.0495692758541745e+02  1.0482955354902606e+02  1.0471424838677325e+02  1.0461101805738413e+02  1.0451989098574333e+02  1.0444097812520594e+02  1.0437445668998797e+02  1.0432059313623785e+02  1.0427992434573640e+02  1.0425364123200103e+02  1.0424514634610766e+02  1.4802800147341566e+02  1.4809303072844875e+02  1.4955188269565494e+02  1.4959589847975244e+02  1.0521691579340246e+02  1.4980290913078554e+02  1.4977489797920052e+02  1.4069200727405752e+02  1.4974970271724467e+02  1.0470765941860648e+02  1.1760156659252759e+02  1.2290219597128790e+02  1.4971551722276422e+02  1.0460806565970178e+02  1.2481960162405699e+02  1.2614106310379161e+02  1.2749279170202900e+02  1.4966614600045529e+02  1.2887857954644022e+02  1.3101048988810362e+02  1.4959710354822096e+02  1.1871927032132750e+02  1.3316652495479755e+02  1.3464803543218721e+02  1.3688831859244900e+02  1.4381173173811456e+02  1.4950055565565762e+02  1.0439232792422922e+02  1.0439279466844300e+02  1.3840510832521954e+02  1.4621313980617370e+02  1.2045524472162656e+02  1.0429061914203020e+02  1.2165870529664555e+02  1.4855197059820588e+02  1.3918808028175920e+02  1.4851828939332623e+02  1.0428929805334059e+02  1.4071566411818594e+02  1.4917551950727838e+02  1.4917497037898636e+02  1.4705487691879233e+02  1.4226825620727564e+02  1.4459126944420692e+02  1.4224721647034858e+02  1.0452547942310994e+02  1.0433363557972780e+02  1.0493821979246039e+02  1.4981422006385745e+02  1.0429513513872413e+02  1.0554358123784287e+02  1.4995585452607912e+02  1.4981670402936123e+02  1.0591804551033569e+02  1.0430901973290673e+02  1.2892622157824462e+02  1.4995738689977603e+02  1.4981461512191919e+02  1.0634013475258574e+02  1.0481738751961051e+02  1.4981026870672883e+02  1.0430994715512803e+02  1.4995851771030254e+02  1.0680964246770324e+02  1.4980492730252527e+02  1.0507203968420410e+02  1.0732634966033659e+02  1.3767083074903866e+02  1.1653982862720713e+02  1.4979928645303085e+02  1.3175701228364954e+02  1.1509528464944025e+02  1.0537577636751875e+02  1.0788998086439621e+02  1.4996149268856402e+02  1.4979373585314352e+02  1.0769720586346918e+02  1.3615953507533823e+02  1.0850023871959148e+02  1.4996047375514789e+02  1.4978849370996616e+02  1.1366281292868000e+02  1.3392081512512334e+02  1.0915679171935813e+02  1.4978368576691219e+02  1.0859412590226582e+02  1.4996090227328975e+02  1.0985924493028118e+02  1.4977938353965462e+02  1.0924990032199402e+02  1.1060717597381834e+02  1.1190291409776340e+02  1.4977563112255433e+02  1.1140012299499081e+02  1.4977245428677412e+02  1.1108878732300214e+02  1.4995959374089739e+02  1.1223754611928450e+02  1.4976986896417262e+02  1.1031933265780370e+02  1.1311886703819823e+02  1.3032932596459551e+02  1.4976788498206159e+02  1.1404345338869581e+02  1.4976650836343578e+02  1.1501057603572173e+02  1.4976574251628099e+02  1.1276111948546337e+02  1.0572530880544609e+02  1.2754963155992930e+02  1.4995627976508160e+02  1.1601947292196900e+02  1.2620138231475866e+02  1.4995524039937067e+02  1.0715754345953513e+02  1.2488319274757140e+02  1.4995429385585587e+02  1.0666490670459680e+02  1.4995345469042653e+02  1.2359667835609199e+02  1.0621952048590350e+02  1.4995273158926915e+02  1.2234335418223192e+02  1.2112463697689466e+02  1.4995212970665125e+02  1.1994184703154819e+02  1.4995165211701564e+02  1.4976558926208790e+02  1.1879621177566023e+02  1.4995130091956463e+02  1.4995340573059806e+02  1.1768887047923501e+02  1.4816165437892883e+02  1.1662087648152885e+02  1.1610243699783643e+02  1.4994890587958929e+02  1.2423639209379117e+02  1.0454883190426212e+02  1.3032986076731621e+02  1.3247997786639684e+02  1.3918865680220199e+02  1.3616707240028424e+02  1.1994235996512667e+02  1.3394067697966369e+02  1.3767139608499463e+02  1.4983960178813564e+02  1.2823502819317540e+02  1.2687238040534773e+02  1.4528293944512365e+02  1.0439644571942796e+02  1.2553894720954136e