<?xml version="1.0"?>
<VTKFile type="UnstructuredGrid"  version="0.1"  >
<UnstructuredGrid>
<Piece  NumberOfPoints="11335" NumberOfCells="22258">
<Points>
<DataArray  type="Float64"  NumberOfComponents="3"  format="ascii">0 0 0  0 10 0  0.5 10 0  0.5 9.5 0  9.5 9.5 0  9.5 10 0  10 10 0  10 0 0  0.5 0.5 0  9.5 0.5 0  0 0.09999999999992584 0  0 0.199999999999856 0  0 0.2999999999997771 0  0 0.3999999999996677 0  0 0.4999999999995511 0  0 0.5999999999994683 0  0 0.6999999999993983 0  0 0.7999999999993286 0  0 0.8999999999992587 0  0 0.9999999999991888 0  0 1.099999999999119 0  0 1.199999999999033 0  0 1.299999999998852 0  0 1.399999999998576 0  0 1.499999999998284 0  0 1.599999999997992 0  0 1.6999999999977 0  0 1.799999999997408 0  0 1.899999999997116 0  0 1.999999999996825 0  0 2.099999999996533 0  0 2.199999999996241 0  0 2.299999999995949 0  0 2.399999999995657 0  0 2.499999999995365 0  0 2.599999999995073 0  0 2.699999999994782 0  0 2.79999999999449 0  0 2.899999999994198 0  0 2.999999999993906 0  0 3.099999999993614 0  0 3.199999999993322 0  0 3.299999999993029 0  0 3.399999999992738 0  0 3.499999999992446 0  0 3.599999999992154 0  0 3.699999999991863 0  0 3.799999999991571 0  0 3.899999999991278 0  0 3.999999999991022 0  0 4.099999999991035 0  0 4.199999999991187 0  0 4.299999999991338 0  0 4.399999999991491 0  0 4.499999999991642 0  0 4.599999999991795 0  0 4.699999999991947 0  0 4.799999999992099 0  0 4.89999999999225 0  0 4.999999999992403 0  0 5.099999999992555 0  0 5.199999999992706 0  0 5.299999999992858 0  0 5.39999999999301 0  0 5.499999999993161 0  0 5.599999999993313 0  0 5.699999999993466 0  0 5.799999999993618 0  0 5.899999999993771 0  0 5.999999999993922 0  0 6.099999999994074 0  0 6.199999999994227 0  0 6.299999999994378 0  0 6.39999999999453 0  0 6.499999999994682 0  0 6.599999999994833 0  0 6.699999999994986 0  0 6.799999999995138 0  0 6.899999999995289 0  0 6.999999999995442 0  0 7.099999999995594 0  0 7.199999999995747 0  0 7.299999999995897 0  0 7.39999999999605 0  0 7.499999999996202 0  0 7.599999999996353 0  0 7.699999999996505 0  0 7.799999999996658 0  0 7.899999999996808 0  0 7.999999999996962 0  0 8.099999999997113 0  0 8.199999999997265 0  0 8.299999999997418 0  0 8.399999999997569 0  0 8.499999999997721 0  0 8.599999999997873 0  0 8.699999999998024 0  0 8.799999999998176 0  0 8.899999999998329 0  0 8.999999999998479 0  0 9.099999999998634 0  0 9.199999999998786 0  0 9.299999999998937 0  0 9.399999999999089 0  0 9.499999999999241 0  0 9.599999999999392 0  0 9.699999999999545 0  0 9.799999999999697 0  0 9.899999999999848 0  0.09999999999977893 10 0  0.1999999999994874 10 0  0.2999999999994734 10 0  0.3999999999997367 10 0  0.5 9.9 0  0.5 9.800000000000001 0  0.5 9.699999999999999 0  0.5 9.6 0  0.5999999999997725 9.5 0  0.6999999999995451 9.5 0  0.7999999999993451 9.5 0  0.8999999999991337 9.5 0  0.9999999999989062 9.5 0  1.099999999998702 9.5 0  1.199999999998578 9.5 0  1.299999999998473 9.5 0  1.39999999999837 9.5 0  1.499999999998266 9.5 0  1.599999999998133 9.5 0  1.699999999997873 9.5 0  1.799999999997521 9.5 0  1.899999999997171 9.5 0  1.99999999999682 9.5 0  2.099999999996469 9.5 0  2.199999999996118 9.5 0  2.299999999995767 9.5 0  2.399999999995416 9.5 0  2.499999999995065 9.5 0  2.599999999994715 9.5 0  2.699999999994364 9.5 0  2.799999999994013 9.5 0  2.899999999993662 9.5 0  2.999999999993312 9.5 0  3.099999999992961 9.5 0  3.19999999999261 9.5 0  3.299999999992259 9.5 0  3.399999999991908 9.5 0  3.499999999991557 9.5 0  3.599999999991207 9.5 0  3.699999999990856 9.5 0  3.799999999990505 9.5 0  3.899999999990154 9.5 0  3.999999999989803 9.5 0  4.099999999989453 9.5 0  4.199999999989102 9.5 0  4.299999999988751 9.5 0  4.3999999999884 9.5 0  4.49999999998805 9.5 0  4.599999999987698 9.5 0  4.699999999987348 9.5 0  4.799999999986997 9.5 0  4.899999999986646 9.5 0  4.999999999986469 9.5 0  5.099999999986931 9.5 0  5.199999999987567 9.5 0  5.299999999988204 9.5 0  5.39999999998884 9.5 0  5.499999999989477 9.5 0  5.599999999990114 9.5 0  5.69999999999075 9.5 0  5.799999999991387 9.5 0  5.899999999992023 9.5 0  5.999999999992659 9.5 0  6.099999999993296 9.5 0  6.199999999993933 9.5 0  6.299999999994569 9.5 0  6.399999999995206 9.5 0  6.499999999995842 9.5 0  6.599999999996479 9.5 0  6.699999999997114 9.5 0  6.799999999997752 9.5 0  6.899999999998387 9.5 0  6.999999999999023 9.5 0  7.099999999999659 9.5 0  7.200000000000294 9.5 0  7.300000000000929 9.5 0  7.400000000001565 9.5 0  7.5000000000022 9.5 0  7.600000000002836 9.5 0  7.700000000003472 9.5 0  7.800000000004108 9.5 0  7.900000000004743 9.5 0  8.000000000005148 9.5 0  8.100000000004911 9.5 0  8.200000000004561 9.5 0  8.300000000004211 9.5 0  8.400000000003859 9.5 0  8.500000000003508 9.5 0  8.600000000003158 9.5 0  8.700000000002806 9.5 0  8.800000000002456 9.5 0  8.900000000002105 9.5 0  9.000000000001755 9.5 0  9.100000000001405 9.5 0  9.200000000001053 9.5 0  9.300000000000701 9.5 0  9.40000000000035 9.5 0  9.5 9.6 0  9.5 9.699999999999999 0  9.5 9.800000000000001 0  9.5 9.9 0  9.6 10 0  9.699999999999999 10 0  9.800000000000001 10 0  9.9 10 0  10 9.9 0  10 9.799999999999999 0  10 9.699999999999999 0  10 9.6 0  10 9.499999999999998 0  10 9.399999999999999 0  10 9.299999999999999 0  10 9.199999999999999 0  10 9.099999999999998 0  10 8.999999999999998 0  10 8.899999999999999 0  10 8.799999999999997 0  10 8.699999999999998 0  10 8.599999999999998 0  10 8.499999999999996 0  10 8.399999999999997 0  10 8.299999999999997 0  10 8.199999999999998 0  10 8.099999999999998 0  10 7.999999999999997 0  10 7.899999999999997 0  10 7.799999999999997 0  10 7.699999999999998 0  10 7.599999999999998 0  10 7.499999999999998 0  10 7.399999999999997 0  10 7.299999999999997 0  10 7.199999999999998 0  10 7.099999999999998 0  10 6.999999999999997 0  10 6.899999999999998 0  10 6.799999999999997 0  10 6.699999999999998 0  10 6.599999999999998 0  10 6.499999999999998 0  10 6.399999999999997 0  10 6.299999999999998 0  10 6.199999999999998 0  10 6.099999999999998 0  10 5.999999999999997 0  10 5.899999999999998 0  10 5.799999999999998 0  10 5.699999999999998 0  10 5.599999999999998 0  10 5.499999999999998 0  10 5.399999999999999 0  10 5.299999999999999 0  10 5.199999999999998 0  10 5.099999999999999 0  10 4.999999999999999 0  10 4.899999999999998 0  10 4.799999999999999 0  10 4.699999999999998 0  10 4.599999999999999 0  10 4.499999999999998 0  10 4.399999999999999 0  10 4.299999999999998 0  10 4.199999999999999 0  10 4.099999999999998 0  10 3.999999999999999 0  10 3.899999999999999 0  10 3.799999999999999 0  10 3.699999999999999 0  10 3.599999999999999 0  10 3.499999999999997 0  10 3.399999999999998 0  10 3.299999999999999 0  10 3.199999999999998 0  10 3.099999999999998 0  10 2.999999999999999 0  10 2.899999999999999 0  10 2.799999999999998 0  10 2.699999999999998 0  10 2.599999999999998 0  10 2.499999999999999 0  10 2.399999999999999 0  10 2.299999999999999 0  10 2.199999999999999 0  10 2.1 0  10 1.999999999999998 0  10 1.899999999999999 0  10 1.799999999999999 0  10 1.699999999999999 0  10 1.6 0  10 1.5 0  10 1.4 0  10 1.299999999999999 0  10 1.199999999999999 0  10 1.099999999999998 0  10 0.9999999999999982 0  10 0.9000000000000004 0  10 0.7999999999999989 0  10 0.6999999999999993 0  10 0.6000000000000014 0  10 0.5 0  10 0.3999999999999986 0  10 0.2999999999999989 0  10 0.1999999999999993 0  10 0.09999999999999964 0  9.9 0 0  9.799999999999999 0 0  9.699999999999999 0 0  9.6 0 0  9.499999999999998 0 0  9.399999999999999 0 0  9.299999999999999 0 0  9.199999999999999 0 0  9.099999999999998 0 0  8.999999999999998 0 0  8.899999999999999 0 0  8.799999999999997 0 0  8.699999999999998 0 0  8.599999999999998 0 0  8.499999999999996 0 0  8.399999999999997 0 0  8.299999999999997 0 0  8.199999999999998 0 0  8.099999999999998 0 0  7.999999999999997 0 0  7.899999999999997 0 0  7.799999999999997 0 0  7.699999999999998 0 0  7.599999999999998 0 0  7.499999999999998 0 0  7.399999999999997 0 0  7.299999999999997 0 0  7.199999999999998 0 0  7.099999999999998 0 0  6.999999999999997 0 0  6.899999999999998 0 0  6.799999999999997 0 0  6.699999999999998 0 0  6.599999999999998 0 0  6.499999999999998 0 0  6.399999999999997 0 0  6.299999999999998 0 0  6.199999999999998 0 0  6.099999999999998 0 0  5.999999999999997 0 0  5.899999999999998 0 0  5.799999999999998 0 0  5.699999999999998 0 0  5.599999999999998 0 0  5.499999999999998 0 0  5.399999999999999 0 0  5.299999999999999 0 0  5.199999999999998 0 0  5.099999999999999 0 0  4.999999999999999 0 0  4.899999999999998 0 0  4.799999999999999 0 0  4.699999999999998 0 0  4.599999999999999 0 0  4.499999999999998 0 0  4.399999999999999 0 0  4.299999999999998 0 0  4.199999999999999 0 0  4.099999999999998 0 0  3.999999999999999 0 0  3.899999999999999 0 0  3.799999999999999 0 0  3.699999999999999 0 0  3.599999999999999 0 0  3.499999999999997 0 0  3.399999999999998 0 0  3.299999999999999 0 0  3.199999999999998 0 0  3.099999999999998 0 0  2.999999999999999 0 0  2.899999999999999 0 0  2.799999999999998 0 0  2.699999999999998 0 0  2.599999999999998 0 0  2.499999999999999 0 0  2.399999999999999 0 0  2.299999999999999 0 0  2.199999999999999 0 0  2.1 0 0  1.999999999999998 0 0  1.899999999999999 0 0  1.799999999999999 0 0  1.699999999999999 0 0  1.6 0 0  1.5 0 0  1.4 0 0  1.299999999999999 0 0  1.199999999999999 0 0  1.099999999999998 0 0  0.9999999999999982 0 0  0.9000000000000004 0 0  0.7999999999999989 0 0  0.6999999999999993 0 0  0.6000000000000014 0 0  0.5 0 0  0.3999999999999986 0 0  0.2999999999999989 0 0  0.1999999999999993 0 0  0.09999999999999964 0 0  9.5 9.400000000000382 0  9.5 9.300000000000763 0  9.5 9.200000000001145 0  9.5 9.100000000001527 0  9.5 9.000000000001908 0  9.5 8.90000000000229 0  9.5 8.800000000002671 0  9.5 8.700000000003053 0  9.5 8.600000000003435 0  9.5 8.500000000003816 0  9.5 8.400000000004198 0  9.5 8.30000000000458 0  9.5 8.200000000004961 0  9.5 8.100000000005343 0  9.5 8.000000000005723 0  9.5 7.90000000000610
[...]
<PointData  Scalars="f_19"> 
<DataArray  type="Float64"  Name="f_19"  format="ascii">1.5000000000000000e+02  2.6477582477154883e+01  2.6282885693074654e+01  2.3966168724794944e+01  2.3976287508471536e+01  2.6272652334072820e+01  2.6467405215077783e+01  1.5000000000000000e+02  1.4490773830207510e+02  1.4490757108522982e+02  1.4863425391272457e+02  1.4729021107910461e+02  1.4591344374367179e+02  1.4447642390478194e+02  1.4296654360206861e+02  1.4138474496239576e+02  1.3974418668290821e+02  1.3806330990204825e+02  1.3635923959178527e+02  1.3464476456519020e+02  1.3292823926515041e+02  1.3121474223650537e+02  1.2950728889909306e+02  1.2780765119650327e+02  1.2611689387247102e+02  1.2443567551997603e+02  1.2276442987117265e+02  1.2110345553803357e+02  1.1945297409849145e+02  1.1781315634496281e+02  1.1618414789512973e+02  1.1456605614165163e+02  1.1295898139808203e+02  1.1136302141230962e+02  1.0977825632483010e+02  1.0820476456341696e+02  1.0664259498706788e+02  1.0509180898270364e+02  1.0355246244627460e+02  1.0202458492347418e+02  1.0050821620481391e+02  9.9003388026498200e+01  9.7510125268916639e+01  9.6028445442882727e+01  9.4558359792443625e+01  9.3099877177899614e+01  9.1652998737981875e+01  9.0217726498310967e+01  8.8794039555559962e+01  8.7381922116613353e+01  8.5981360219417198e+01  8.4592330064268339e+01  8.3214801934661978e+01  8.1848739909646227e+01  8.0494103691239346e+01  7.9150846563702885e+01  7.7818906942078257e+01  7.6498315575042938e+01  7.5188943549499484e+01  7.3890703582463047e+01  7.2603594070387132e+01  7.1327528126451213e+01  7.0062340670330585e+01  6.8808552321987065e+01  6.7564846106528250e+01  6.6332379848847353e+01  6.5110503883017302e+01  6.3899228929636443e+01  6.2698482710888911e+01  6.1508186280590635e+01  6.0328260090327618e+01  5.9158624494315184e+01  5.7999194646929396e+01  5.6849806250332144e+01  5.5710928766627298e+01  5.4581342772643055e+01  5.3462113893956165e+01  5.2352642314699771e+01  5.1252865221946934e+01  5.0163262542400730e+01  4.9082676182403134e+01  4.8012170677499491e+01  4.6951205362374495e+01  4.5899845037102203e+01  4.4858096387388571e+01  4.3825978867219163e+01  4.2803532053703641e+01  4.1790808974665552e+01  4.0787932524051691e+01  3.9795091316561873e+01  3.8812460179168504e+01  3.7840269913019299e+01  3.6878913865513589e+01  3.5928991022959281e+01  3.4991263415371620e+01  3.4066863545220862e+01  3.3157491886379212e+01  3.2265758145924721e+01  3.1395754623015154e+01  3.0553989078314082e+01  2.9750415386127180e+01  2.8999669156440756e+01  2.8323233265405630e+01  2.7748844408889873e+01  2.7286548745833649e+01  2.6951899300071318e+01  2.6725969620186849e+01  2.6586025557192471e+01  2.6508505393389122e+01  2.6469784463246008e+01  2.6427027939610930e+01  2.6367045606492550e+01  2.6310882546617123e+01  2.6275130066432958e+01  2.6214136138808009e+01  2.6045421100983631e+01  2.5608731562712510e+01  -5.0553782686666242e+00  4.7370706359381981e-01  -8.4561647760388747e-01  -6.7931880730437499e-01  -7.7365148270952355e-01  -7.9567218806431306e-01  -8.2097319136740865e-01  -8.3850221206567077e-01  -8.5284689854523965e-01  -8.6449844138526344e-01  -8.7426049273880913e-01  -8.8257220325795316e-01  -8.8976052581763598e-01  -8.9605554759049888e-01  -9.0162724658991533e-01  -9.0660300350820366e-01  -9.1108020648942767e-01  -9.1513446632668427e-01  -9.1882531753866836e-01  -9.2220021608226777e-01  -9.2529740690491924e-01  -9.2814801473407627e-01  -9.3077759275762884e-01  -9.3320728581759982e-01  -9.3545471519332768e-01  -9.3753465935219682e-01  -9.3945958318178990e-01  -9.4124005331750138e-01  -9.4288506687033014e-01  -9.4440231362071581e-01  -9.4579838659245941e-01  -9.4707895220814076e-01  -9.4824888852039135e-01  -9.4931239801745637e-01  -9.5027310001459575e-01  -9.5113410652372410e-01  -9.5189808464332648e-01  -9.5256730785792765e-01  -9.5314369813056421e-01  -9.5362886027542926e-01  -9.5402410978393359e-01  -9.5433049502545741e-01  -9.5454881453864071e-01  -9.5467962995856115e-01  -9.5472327498025500e-01  -9.5467986063251398e-01  -9.5454927702170878e-01  -9.5433119159814295e-01  -9.5402504389264320e-01  -9.5363003656387502e-01  -9.5314512248271965e-01  -9.5256898745347296e-01  -9.5190002802689500e-01  -9.5113632368955303e-01  -9.5027560250865906e-01  -9.4931519905965334e-01  -9.4825200314995528e-01  -9.4708239745628875e-01  -9.4580218168712971e-01  -9.4440648022963192e-01  -9.4288962938999599e-01  -9.4124503921789604e-01  -9.3946502341901494e-01  -9.3754058886482550e-01  -9.3546117350281355e-01  -9.3321431775917973e-01  -9.3078524937684037e-01  -9.2815635439561794e-01  -9.2530649667747022e-01  -9.2221013348681591e-01  -9.1883615278297637e-01  -9.1514632520120121e-01  -9.1109321417848754e-01  -9.0661730969194687e-01  -9.0164303240453547e-01  -8.9607303529006099e-01  -8.8977999255024232e-01  -8.8259400058870563e-01  -8.7428507729224680e-01  -8.6452641132688912e-01  -8.5287909749349378e-01  -8.3853966281431858e-01  -8.2101819979439383e-01  -7.9572447312345973e-01  -7.7373103081810857e-01  -6.7935546995946006e-01  -8.4588370040841332e-01  4.7391639653021117e-01  -5.0579862081143192e+00  2.5591978309306004e+01  2.6038693609629807e+01  2.6202649608088105e+01  2.6264574684495443e+01  2.6300945355247613e+01  2.6357161837329965e+01  2.6417257803068374e+01  2.6459722342667206e+01  2.6498364748021281e+01  2.6576024763699092e+01  2.6715437731627890e+01  2.6942052717698861e+01  2.7278229890085054e+01  2.7737654299442564e+01  2.8315156807524243e+01  2.8991352722119078e+01  2.9741359345081488e+01  3.0545022717448170e+01  3.1386983328589043e+01  3.2257084775876137e+01  3.3148950159461947e+01  3.4058461651455460e+01  3.4983003131361997e+01  3.5920868759358214e+01  3.6870921656802636e+01  3.7832383955784330e+01  3.8804710385525951e+01  3.9787511358101682e+01  4.0780505198473875e+01  4.1783487697259147e+01  4.2796312131376943e+01  4.3818875690356997e+01  4.4851109878470055e+01  4.5892973528192655e+01  4.6944447645355865e+01  4.8005531516093185e+01  4.9076239636297345e+01  5.0156599204623276e+01  5.1246648050860486e+01  5.2346432903815995e+01  5.3456007918334357e+01  5.4575433417495674e+01  5.5704774818287582e+01  5.6844101695583795e+01  5.7993486943993055e+01  5.9153006019778871e+01  6.0322736260097749e+01  6.1502756280131678e+01  6.2693145440895144e+01  6.3893983365069793e+01  6.5105349476515016e+01  6.6327322560827497e+01  6.7559980364839092e+01  6.8803399247366670e+01  7.0057653867919640e+01  7.1322816884477177e+01  7.2598958646824798e+01  7.3886146900010061e+01  7.5184446514981261e+01  7.6493919240322981e+01  7.7814623461314241e+01  7.9146613971525383e+01  8.0489941771824505e+01  8.1844653894580262e+01  8.3210793235257611e+01  8.4588398380437013e+01  8.5977503433360951e+01  8.7378137843804552e+01  8.8790326256868312e+01  9.0214088392109943e+01  9.1649438936948854e+01  9.3096387425119488e+01  9.4554938105664164e+01  9.6025089838077704e+01  9.7506836007788522e+01  9.9000164405817017e+01  1.0050505705862307e+02  1.0202149005596894e+02  1.0354943341251773e+02  1.0508885106417002e+02  1.0663970061327900e+02  1.0820193183551952e+02  1.0977548012406444e+02  1.1136029496036292e+02  1.1295630983953237e+02  1.1456348234317439e+02  1.1618161088660509e+02  1.1781069153082919e+02  1.1945057814784289e+02  1.2110110335077057e+02  1.2276212978812883e+02  1.2443342974913828e+02  1.2611473002026852e+02  1.2780551518198676e+02  1.2950519089668944e+02  1.3121272975490331e+02  1.3292629442997153e+02  1.3464288903116127e+02  1.3635743999233290e+02  1.3806163399898358e+02  1.3974268664611478e+02  1.4138293155449620e+02  1.4296486243429038e+02  1.4447422079600571e+02  1.4591285879004764e+02  1.4728978780924990e+02  1.4863380292420342e+02  1.5000000000000000e+02  1.5000000000000000e+02  1.5000000000000000e+02  1.5000000000000000e+02  1.5000000000000000e+02  1.5000000000000003e+02  1.5000000000000000e+02  1.5000000000000000e+02  1.5000000000000000e+02  1.5000000000000000e+02  1.5000000000000000e+02  1.5000000000000000e+02  1.5000000000000000e+02  1.5000000000000003e+02  1.5000000000000003e+02  1.5000000000000000e+02  1.5000000000000000e+02  1.5000000000000000e+02  1.5000000000000000e+02  1.4999999999999997e+02  1.5000000000000000e+02  1.5000000000000000e+02  1.5000000000000000e+02  1.5000000000000000e+02  1.5000000000000000e+02  1.5000000000000000e+02  1.5000000000000000e+02  1.5000000000000000e+02  1.5000000000000000e+02  1.5000000000000000e+02  1.5000000000000000e+02  1.5000000000000000e+02  1.5000000000000000e+02  1.5000000000000000e+02  1.5000000000000000e+02  1.5000000000000000e+02  1.5000000000000000e+02  1.5000000000000000e+02  1.5000000000000000e+02  1.5000000000000000e+02  1.5000000000000000e+02  1.5000000000000000e+02  1.5000000000000000e+02  1.5000000000000000e+02  1.5000000000000000e+02  1.5000000000000000e+02  1.5000000000000000e+02  1.5000000000000000e+02  1.5000000000000000e+02  1.5000000000000000e+02  1.5000000000000000e+02  1.5000000000000000e+02  1.4999999999999997e+02  1.5000000000000000e+02  1.5000000000000000e+02  1.5000000000000000e+02  1.5000000000000000e+02  1.5000000000000000e+02  1.4999999999999997e+02  1.5000000000000000e+02  1.5000000000000000e+02  1.5000000000000000e+02  1.5000000000000000e+02  1.5000000000000000e+02  1.5000000000000000e+02  1.5000000000000000e+02  1.5000000000000000e+02  1.5000000000000000e+02  1.5000000000000000e+02  1.5000000000000000e+02  1.5000000000000000e+02  1.5000000000000000e+02  1.5000000000000000e+02  1.5000000000000000e+02  1.5000000000000000e+02  1.5000000000000000e+02  1.5000000000000000e+02  1.5000000000000000e+02  1.5000000000000000e+02  1.5000000000000000e+02  1.5000000000000000e+02  1.5000000000000000e+02  1.5000000000000000e+02  1.5000000000000000e+02  1.5000000000000000e+02  1.5000000000000000e+02  1.4999999999999997e+02  1.5000000000000000e+02  1.5000000000000000e+02  1.5000000000000000e+02  1.5000000000000000e+02  1.5000000000000000e+02  1.5000000000000000e+02  1.5000000000000000e+02  1.5000000000000000e+02  1.5000000000000000e+02  1.5000000000000000e+02  1.5000000000000000e+02  1.5000000000000000e+02  2.6060652726758690e+01  2.7325026280711207e+01  2.8369074324264886e+01  2.9333179976673620e+01  3.0263974299021907e+01  3.1184155502080326e+01  3.2103997448336592e+01  3.3028714615823112e+01  3.3960506306950670e+01  3.4900780149804895e+01  3.5850451513167172e+01  3.6809470072605201e+01  3.7778008219930598e+01  3.8756203593833455e+01  3.9743740103322452e+01  4.0740884105752009e+01  4.1747388085366680e+01  4.2763297183560596e+01  4.3788595367685566e+01  4.4823280557060876e+01  4.5867399875762160e+01  4.6920893423924419e+01  4.7983870525951716e+01  4.9056320688958955e+01  5.0138339269127613e+01  5.1229943650559846e+01  5.2331219143445544e+01  5.3442243037106387e+01  5.4563062434832887e+01  5.5693779451866305e+01  5.6834451555656884e+01  5.7985180384319222e+01  5.9146035935617910e+01  6.0317110928906182e+01  6.1498492503345865e+01  6.2690252972871278e+01  6.3892490384948005e+01  6.5105283146922986e+01  6.6328718671994082e+01  6.7562884824777868e+01  6.8807845077363183e+01  7.0063696654460074e+01  7.1330493532568738e+01  7.2608339166085798e+01  7.3897281899010551e+01  7.5197398096029303e+01  7.6508751490456376e+01  7.7831402104171744e+01  7.9165417160884260e+01  8.0510833482310360e+01  8.1867711604347690e+01  8.3236092887605025e+01  8.4616017825372268e+01  8.6007524653388231e+01  8.7410640532064065e+01  8.8825408110314100e+01  9.0251820586853313e+01  9.1689912964561174e+01  9.3139691765547241e+01  9.4601162798667360e+01  9.6074352309399728e+01  9.7559163838798739e+01  9.9055720092276800e+01  1.0056389994346542e+02  1.0208372013919983e+02  1.0361519289217611e+02  1.0515816191258564e+02  1.0671274234033858e+02  1.0827872724078378e+02  1.0985623813639965e+02  1.1144508199493210e+02  1.1304524182165645e+02  1.1465669392100058e+02  1.1627924762884140e+02  1.1791292642910592e+02  1.1955763970860004e+02  1.2121326481702367e+02  1.2287975599903912e+02  1.2455708960267535e+02  1.2624512437542110e+02  1.2794414828694933e+02  1.2965452188241028e+02  1.3137661854339291e+02  1.3311200055302575e+02  1.3486344316991404e+02  1.3663648195329228e+02  1.3844356433579529e+02  1.4031326976273485e+02  1.4233613624137533e+02  1.4671980722499222e+02  1.4764166647557573e+02  1.4823253049412270e+02  1.4864145622626921e+02  1.4893296298896018e+02  1.4914352961260815e+02  1.4929655248654925e+02  1.4940803758954090e+02  1.4948926995279709e+02  1.4954837111163624e+02  1.4959123820165675e+02  1.4962217695891280e+02  1.4964434199265168e+02  1.4966004747945547e+02  1.4967099513755903e+02  1.4967843807827785e+02  1.4968329918215335e+02  1.4968626443118876e+02  1.4968783667185861e+02  1.4968839191477997e+02  1.4968820760709050e+02  1.4968749248066740e+02  1.4968639946995262e+02  1.4968504810795287e+02  1.4968352524895965e+02  1.4968189736316728e+02  1.4968021444622295e+02  1.4967851763294803e+02  1.4967683543527991e+02  1.4967518967115237e+02  1.4967360083421204e+02  1.4967208258939144e+02  1.4967064634592089e+02  1.4966930129040148e+02  1.4966805483389669e+02  1.4966691298735688e+02  1.4966588064590292e+02  1.4966496180255322e+02  1.4966415970906417e+02  1.4966347699856786e+02  1.4966291577021127e+02  1.4966247765987075e+02  1.4966216389210689e+02  1.4966197533166459e+02  1.4966191249080475e+02  1.4966197552956689e+02  1.4966216436453823e+02  1.4966247834790926e+02  1.4966291666468723e+02  1.4966347809978581e+02  1.4966416102956583e+02  1.4966496351350159e+02  1.4966588264375167e+02  1.4966691516545535e+02  1.4966805692260652e+02  1.4966930304525462e+02  1.4967064841696521e+02  1.4967208527633619e+02  1.4967360425636687e+02  1.4967519392536471e+02  1.4967683898553057e+02  1.4967852124707707e+02  1.4968021771102900e+02  1.4968190012235686e+02  1.4968352779748525e+02  1.4968505090719077e+02  1.4968640054270898e+02  1.4968749166015570e+02  1.4968820623463679e+02  1.4968838843867999e+02  1.4968783045777042e+02  1.4968625346689376e+02  1.4968328252675482e+02  1.4967841191360873e+02  1.4967095522078881e+02  1.4965998804669766e+02  1.4964425978840308e+02  1.4962207103267909e+02  1.4959111599737847e+02  1.4954828205747455e+02  1.4948912555648997e+02  1.4940784457082125e+02  1.4929641069286615e+02  1.4914343135977032e+02  1.4893296214933090e+02  1.4864167270329105e+02  1.4823316036562287e+02  1.4764172622637770e+02  1.4671291553158588e+02  1.4233704258417993e+02  1.4031601215948572e+02  1.3844600526234254e+02  1.3663865448885431e+02  1.3486540331070208e+02  1.3311395205708487e+02  1.3137865623448192e+02  1.2965659780111093e+02  1.2794629339433271e+02  1.2624736204925249e+02  1.2455933343839926e+02  1.2288204919533624e+02  1.2121563122345536e+02  1.1955998744335623e+02  1.1791542945172475e+02  1.1628178513101319e+02  1.1465926383757565e+02  1.1304790246006040e+02  1.1144779463585409e+02  1.0985899078271460e+02  1.0828153383320308e+02  1.0671565778038244e+02  1.0516111584530299e+02  1.0361821813936253e+02  1.0208682312179089e+02  1.0056705656504417e+02  9.9058940714708754e+01  9.7562449479824295e+01  9.6077706683641239e+01  9.4604584716132109e+01  9.3143169859604214e+01  9.1693458753528105e+01  9.0255455802041368e+01  8.8829129803282783e+01  8.7414420433202963e+01  8.6011375938211344e+01  8.4619934796222992e+01  8.3239972877045133e+01  8.1872062226237588e+01  8.0514855031429690e+01  7.9169646326735474e+01  7.7835735252454270e+01  7.6513159267909501e+01  7.5201836750697410e+01  7.3901831862553294e+01  7.2612973642402409e+01  7.1335217447201273e+01  7.0068497309193333e+01  6.8812733468651928e+01  6.7567856861711903e+01  6.6333785199552509e+01  6.5110437732240186e+01  6.3897733079658188e+01  6.2695584118210121e+01  6.1503917705862087e+01  6.0322630110747404e+01  5.9151652174211968e+01  5.7990893936784481e+01  5.6840262722071138e+01  5.5699689458379112e+01  5.4569072406640920e+01  5.3448351604708073e+01  5.2337434399337688e+01  5.1236261727097251e+01  5.0144760069331639e+01  4.9062851353677452e+01  4.7990512365375736e+01  4.6927644493716116e+01  4.5874266641918418e+01  4.4830260906446220e+01  4.3795685597446223e+01  4.2770491191475344e+01  4.1754710839452855e+01  4.0748342713566771e+01  3.9751310404627951e+01  3.8763870096847732e+01  3.7785929492571938e+01  3.6817471260897790e+01  3.5858596070961049e+01  3.4909012424550184e+01  3.3968902179146511e+01  3.3037390002605264e+01  3.2112870032436504e+01  3.1193202155759060e+01  3.0273194578673337e+01  2.9342756797524775e+01  2.8379246054989771e+01  2.7339021934402147e+01  2.6078086784787082e+01  1.4528949705328583e+02  1.4544740343519106e+02  1.4894271427280731e+02  1.4904692936855221e+02  3.7321015827317048e+01  1.4966203348403576e+02  1.4957848940991897e+02  1.2876890473862989e+02  1.4951089900204201e+02  3.3533337173907647e+01  7.7172475917351036e+01  8.9568332227696430e+01  1.4942063884564936e+02  3.2608758841846658e+01  9.3885468702075599e+01  9.6830595715302593e+01  9.9822348305024619e+01  1.4929538308887098e+02  1.0287487767173265e+02  1.0754596346667128e+02  1.4912391939354097e+02  7.9857822576713119e+01  1.1225144069314051e+02  1.1548779913679169e+02  1.2038668903187580e+02  1.3574438447284294e+02  1.4888802753860085e+02  2.9882902307645583e+01  2.9892348311350897e+01  1.2371724353124510e+02  1.4120399336747624e+02  8.3944589645098020e+01  2.7060778629257392e+01  8.6726709366616973e+01  1.4663098038220025e+02  1.2531290294469603e+02  1.4655220491119695e+02  2.7058769329146223e+01  1.2869814875970187e+02  1.4810767332329530e+02  1.4810635485256870e+02  1.4314056638537559e+02  1.3228059354436644e+02  1.3750644193285765e+02  1.3223127030108921e+02  3.1696711096952111e+01  2.7059633104171159e+01  3.5407177183666306e+01  1.4970551039236290e+02  2.5731262922933816e+01  3.9274487923939063e+01  1.4992237414419174e+02  1.4972730513462889e+02  4.1266791640003675e+01  2.6200887367299313e+01  1.0281567676289595e+02  1.4994517705342867e+02  1.4973735129708513e+02  4.3297319214809512e+01  3.4473625422091551e+01  1.4974104830572776e+02  2.6228270782432013e+01  1.4994547773037070e+02  4.5365789769489894e+01  1.4974134834528817e+02  3.6367169150786538e+01  4.7472165219740234e+01  1.2196900926449236e+02  7.4568311549143985e+01  1.4973987953082954e+02  1.0902117578646184e+02  7.0714404982925103e+01  3.8313021923667144e+01  4.9616624077972936e+01  1.4993774462565943e+02  1.4973755186241246e+02  4.8559859486226621e+01  1.1864951164317533e+02  5.1799511417940202e+01  1.4994469324676828e+02  1.4973488018496465e+02  6.6966890298716677e+01  1.1374893796853642e+02  5.4021296771313828e+01  1.4973216264690973e+02  5.1816259969640548e+01  1.4994268871344886e+02  5.6282528082369346e+01  1.4972957472532721e+02  5.4035940660918719e+01  5.8583817157043711e+01  6.2120001384384473e+01  1.4972722449967065e+02  6.0925813447704265e+01  1.4972517929119240e+02  5.9759371182170099e+01  1.4994542639420177e+02  6.3309179280214387e+01  1.4972348263204566e+02  5.7439790148515378e+01  6.5734582783006346e+01  1.0589559927014756e+02  1.4972216306831987e+02  6.8202683485699097e+01  1.4972123921902900e+02  7.0714109549858577e+01  1.4972072253118554e+02  6.4522286382142767e+01  4.0273347249165830e+01  9.9781745651436211e+01  1.4994470831646416e+02  7.3269465865089728e+01  9.6794045707101091e+01  1.4994417551142638e+02  4.6437161076379311e+01  9.3852720784846454e+01  1.4994363848832091e+02  4.4352931958613048e+01  1.4994313256837737e+02  9.0957823811831830e+01  4.2307303085206883e+01  1.4994267922253414e+02  8.8109320780595311e+01  8.5307094153715056e+01  1.4994229179371814e+02  8.2550946694246619e+01  1.4994197875306619e+02  1.4972061902925282e+02  7.9840605489562122e+01  1.4994174570561481e+02  1.4994437635193316e+02  7.7175727258403100e+01  1.4570809578118036e+02  7.4555903844615116e+01  7.3267338418459516e+01  1.4990173347346024e+02  9.2402992406741333e+01  3.0969849062782803e+01  1.0589852537050849e+02  1.1060367859783767e+02  1.2531513424853033e+02  1.1866914262985523e+02  8.2554995907420604e+01  1.1379674669933678e+02  1.2197133653415429e+02  1.4963433491248458e+02  1.0129607356547153e+02  9.82