<?xml version="1.0"?>
<VTKFile type="UnstructuredGrid"  version="0.1"  >
<UnstructuredGrid>
<Piece  NumberOfPoints="11335" NumberOfCells="22258">
<Points>
<DataArray  type="Float64"  NumberOfComponents="3"  format="ascii">0 0 0  0 10 0  0.5 10 0  0.5 9.5 0  9.5 9.5 0  9.5 10 0  10 10 0  10 0 0  0.5 0.5 0  9.5 0.5 0  0 0.09999999999992584 0  0 0.199999999999856 0  0 0.2999999999997771 0  0 0.3999999999996677 0  0 0.4999999999995511 0  0 0.5999999999994683 0  0 0.6999999999993983 0  0 0.7999999999993286 0  0 0.8999999999992587 0  0 0.9999999999991888 0  0 1.099999999999119 0  0 1.199999999999033 0  0 1.299999999998852 0  0 1.399999999998576 0  0 1.499999999998284 0  0 1.599999999997992 0  0 1.6999999999977 0  0 1.799999999997408 0  0 1.899999999997116 0  0 1.999999999996825 0  0 2.099999999996533 0  0 2.199999999996241 0  0 2.299999999995949 0  0 2.399999999995657 0  0 2.499999999995365 0  0 2.599999999995073 0  0 2.699999999994782 0  0 2.79999999999449 0  0 2.899999999994198 0  0 2.999999999993906 0  0 3.099999999993614 0  0 3.199999999993322 0  0 3.299999999993029 0  0 3.399999999992738 0  0 3.499999999992446 0  0 3.599999999992154 0  0 3.699999999991863 0  0 3.799999999991571 0  0 3.899999999991278 0  0 3.999999999991022 0  0 4.099999999991035 0  0 4.199999999991187 0  0 4.299999999991338 0  0 4.399999999991491 0  0 4.499999999991642 0  0 4.599999999991795 0  0 4.699999999991947 0  0 4.799999999992099 0  0 4.89999999999225 0  0 4.999999999992403 0  0 5.099999999992555 0  0 5.199999999992706 0  0 5.299999999992858 0  0 5.39999999999301 0  0 5.499999999993161 0  0 5.599999999993313 0  0 5.699999999993466 0  0 5.799999999993618 0  0 5.899999999993771 0  0 5.999999999993922 0  0 6.099999999994074 0  0 6.199999999994227 0  0 6.299999999994378 0  0 6.39999999999453 0  0 6.499999999994682 0  0 6.599999999994833 0  0 6.699999999994986 0  0 6.799999999995138 0  0 6.899999999995289 0  0 6.999999999995442 0  0 7.099999999995594 0  0 7.199999999995747 0  0 7.299999999995897 0  0 7.39999999999605 0  0 7.499999999996202 0  0 7.599999999996353 0  0 7.699999999996505 0  0 7.799999999996658 0  0 7.899999999996808 0  0 7.999999999996962 0  0 8.099999999997113 0  0 8.199999999997265 0  0 8.299999999997418 0  0 8.399999999997569 0  0 8.499999999997721 0  0 8.599999999997873 0  0 8.699999999998024 0  0 8.799999999998176 0  0 8.899999999998329 0  0 8.999999999998479 0  0 9.099999999998634 0  0 9.199999999998786 0  0 9.299999999998937 0  0 9.399999999999089 0  0 9.499999999999241 0  0 9.599999999999392 0  0 9.699999999999545 0  0 9.799999999999697 0  0 9.899999999999848 0  0.09999999999977893 10 0  0.1999999999994874 10 0  0.2999999999994734 10 0  0.3999999999997367 10 0  0.5 9.9 0  0.5 9.800000000000001 0  0.5 9.699999999999999 0  0.5 9.6 0  0.5999999999997725 9.5 0  0.6999999999995451 9.5 0  0.7999999999993451 9.5 0  0.8999999999991337 9.5 0  0.9999999999989062 9.5 0  1.099999999998702 9.5 0  1.199999999998578 9.5 0  1.299999999998473 9.5 0  1.39999999999837 9.5 0  1.499999999998266 9.5 0  1.599999999998133 9.5 0  1.699999999997873 9.5 0  1.799999999997521 9.5 0  1.899999999997171 9.5 0  1.99999999999682 9.5 0  2.099999999996469 9.5 0  2.199999999996118 9.5 0  2.299999999995767 9.5 0  2.399999999995416 9.5 0  2.499999999995065 9.5 0  2.599999999994715 9.5 0  2.699999999994364 9.5 0  2.799999999994013 9.5 0  2.899999999993662 9.5 0  2.999999999993312 9.5 0  3.099999999992961 9.5 0  3.19999999999261 9.5 0  3.299999999992259 9.5 0  3.399999999991908 9.5 0  3.499999999991557 9.5 0  3.599999999991207 9.5 0  3.699999999990856 9.5 0  3.799999999990505 9.5 0  3.899999999990154 9.5 0  3.999999999989803 9.5 0  4.099999999989453 9.5 0  4.199999999989102 9.5 0  4.299999999988751 9.5 0  4.3999999999884 9.5 0  4.49999999998805 9.5 0  4.599999999987698 9.5 0  4.699999999987348 9.5 0  4.799999999986997 9.5 0  4.899999999986646 9.5 0  4.999999999986469 9.5 0  5.099999999986931 9.5 0  5.199999999987567 9.5 0  5.299999999988204 9.5 0  5.39999999998884 9.5 0  5.499999999989477 9.5 0  5.599999999990114 9.5 0  5.69999999999075 9.5 0  5.799999999991387 9.5 0  5.899999999992023 9.5 0  5.999999999992659 9.5 0  6.099999999993296 9.5 0  6.199999999993933 9.5 0  6.299999999994569 9.5 0  6.399999999995206 9.5 0  6.499999999995842 9.5 0  6.599999999996479 9.5 0  6.699999999997114 9.5 0  6.799999999997752 9.5 0  6.899999999998387 9.5 0  6.999999999999023 9.5 0  7.099999999999659 9.5 0  7.200000000000294 9.5 0  7.300000000000929 9.5 0  7.400000000001565 9.5 0  7.5000000000022 9.5 0  7.600000000002836 9.5 0  7.700000000003472 9.5 0  7.800000000004108 9.5 0  7.900000000004743 9.5 0  8.000000000005148 9.5 0  8.100000000004911 9.5 0  8.200000000004561 9.5 0  8.300000000004211 9.5 0  8.400000000003859 9.5 0  8.500000000003508 9.5 0  8.600000000003158 9.5 0  8.700000000002806 9.5 0  8.800000000002456 9.5 0  8.900000000002105 9.5 0  9.000000000001755 9.5 0  9.100000000001405 9.5 0  9.200000000001053 9.5 0  9.300000000000701 9.5 0  9.40000000000035 9.5 0  9.5 9.6 0  9.5 9.699999999999999 0  9.5 9.800000000000001 0  9.5 9.9 0  9.6 10 0  9.699999999999999 10 0  9.800000000000001 10 0  9.9 10 0  10 9.9 0  10 9.799999999999999 0  10 9.699999999999999 0  10 9.6 0  10 9.499999999999998 0  10 9.399999999999999 0  10 9.299999999999999 0  10 9.199999999999999 0  10 9.099999999999998 0  10 8.999999999999998 0  10 8.899999999999999 0  10 8.799999999999997 0  10 8.699999999999998 0  10 8.599999999999998 0  10 8.499999999999996 0  10 8.399999999999997 0  10 8.299999999999997 0  10 8.199999999999998 0  10 8.099999999999998 0  10 7.999999999999997 0  10 7.899999999999997 0  10 7.799999999999997 0  10 7.699999999999998 0  10 7.599999999999998 0  10 7.499999999999998 0  10 7.399999999999997 0  10 7.299999999999997 0  10 7.199999999999998 0  10 7.099999999999998 0  10 6.999999999999997 0  10 6.899999999999998 0  10 6.799999999999997 0  10 6.699999999999998 0  10 6.599999999999998 0  10 6.499999999999998 0  10 6.399999999999997 0  10 6.299999999999998 0  10 6.199999999999998 0  10 6.099999999999998 0  10 5.999999999999997 0  10 5.899999999999998 0  10 5.799999999999998 0  10 5.699999999999998 0  10 5.599999999999998 0  10 5.499999999999998 0  10 5.399999999999999 0  10 5.299999999999999 0  10 5.199999999999998 0  10 5.099999999999999 0  10 4.999999999999999 0  10 4.899999999999998 0  10 4.799999999999999 0  10 4.699999999999998 0  10 4.599999999999999 0  10 4.499999999999998 0  10 4.399999999999999 0  10 4.299999999999998 0  10 4.199999999999999 0  10 4.099999999999998 0  10 3.999999999999999 0  10 3.899999999999999 0  10 3.799999999999999 0  10 3.699999999999999 0  10 3.599999999999999 0  10 3.499999999999997 0  10 3.399999999999998 0  10 3.299999999999999 0  10 3.199999999999998 0  10 3.099999999999998 0  10 2.999999999999999 0  10 2.899999999999999 0  10 2.799999999999998 0  10 2.699999999999998 0  10 2.599999999999998 0  10 2.499999999999999 0  10 2.399999999999999 0  10 2.299999999999999 0  10 2.199999999999999 0  10 2.1 0  10 1.999999999999998 0  10 1.899999999999999 0  10 1.799999999999999 0  10 1.699999999999999 0  10 1.6 0  10 1.5 0  10 1.4 0  10 1.299999999999999 0  10 1.199999999999999 0  10 1.099999999999998 0  10 0.9999999999999982 0  10 0.9000000000000004 0  10 0.7999999999999989 0  10 0.6999999999999993 0  10 0.6000000000000014 0  10 0.5 0  10 0.3999999999999986 0  10 0.2999999999999989 0  10 0.1999999999999993 0  10 0.09999999999999964 0  9.9 0 0  9.799999999999999 0 0  9.699999999999999 0 0  9.6 0 0  9.499999999999998 0 0  9.399999999999999 0 0  9.299999999999999 0 0  9.199999999999999 0 0  9.099999999999998 0 0  8.999999999999998 0 0  8.899999999999999 0 0  8.799999999999997 0 0  8.699999999999998 0 0  8.599999999999998 0 0  8.499999999999996 0 0  8.399999999999997 0 0  8.299999999999997 0 0  8.199999999999998 0 0  8.099999999999998 0 0  7.999999999999997 0 0  7.899999999999997 0 0  7.799999999999997 0 0  7.699999999999998 0 0  7.599999999999998 0 0  7.499999999999998 0 0  7.399999999999997 0 0  7.299999999999997 0 0  7.199999999999998 0 0  7.099999999999998 0 0  6.999999999999997 0 0  6.899999999999998 0 0  6.799999999999997 0 0  6.699999999999998 0 0  6.599999999999998 0 0  6.499999999999998 0 0  6.399999999999997 0 0  6.299999999999998 0 0  6.199999999999998 0 0  6.099999999999998 0 0  5.999999999999997 0 0  5.899999999999998 0 0  5.799999999999998 0 0  5.699999999999998 0 0  5.599999999999998 0 0  5.499999999999998 0 0  5.399999999999999 0 0  5.299999999999999 0 0  5.199999999999998 0 0  5.099999999999999 0 0  4.999999999999999 0 0  4.899999999999998 0 0  4.799999999999999 0 0  4.699999999999998 0 0  4.599999999999999 0 0  4.499999999999998 0 0  4.399999999999999 0 0  4.299999999999998 0 0  4.199999999999999 0 0  4.099999999999998 0 0  3.999999999999999 0 0  3.899999999999999 0 0  3.799999999999999 0 0  3.699999999999999 0 0  3.599999999999999 0 0  3.499999999999997 0 0  3.399999999999998 0 0  3.299999999999999 0 0  3.199999999999998 0 0  3.099999999999998 0 0  2.999999999999999 0 0  2.899999999999999 0 0  2.799999999999998 0 0  2.699999999999998 0 0  2.599999999999998 0 0  2.499999999999999 0 0  2.399999999999999 0 0  2.299999999999999 0 0  2.199999999999999 0 0  2.1 0 0  1.999999999999998 0 0  1.899999999999999 0 0  1.799999999999999 0 0  1.699999999999999 0 0  1.6 0 0  1.5 0 0  1.4 0 0  1.299999999999999 0 0  1.199999999999999 0 0  1.099999999999998 0 0  0.9999999999999982 0 0  0.9000000000000004 0 0  0.7999999999999989 0 0  0.6999999999999993 0 0  0.6000000000000014 0 0  0.5 0 0  0.3999999999999986 0 0  0.2999999999999989 0 0  0.1999999999999993 0 0  0.09999999999999964 0 0  9.5 9.400000000000382 0  9.5 9.300000000000763 0  9.5 9.200000000001145 0  9.5 9.100000000001527 0  9.5 9.000000000001908 0  9.5 8.90000000000229 0  9.5 8.800000000002671 0  9.5 8.700000000003053 0  9.5 8.600000000003435 0  9.5 8.500000000003816 0  9.5 8.400000000004198 0  9.5 8.30000000000458 0  9.5 8.200000000004961 0  9.5 8.100000000005343 0  9.5 8.000000000005723 0  9.5 7.90000000000610
[...]
<PointData  Scalars="f_18"> 
<DataArray  type="Float64"  Name="f_18"  format="ascii">1.5000000000000000e+02  1.3842777316321758e+02  1.3842628045971819e+02  1.3841377958794629e+02  1.3841362692416030e+02  1.3842615059544889e+02  1.3842764000840958e+02  1.5000000000000000e+02  1.4946794852707401e+02  1.4946795298900204e+02  1.4986705239052210e+02  1.4973098480900339e+02  1.4958924805607407e+02  1.4943960059110788e+02  1.4928101412026624e+02  1.4911371696074195e+02  1.4893916593975300e+02  1.4875934781839814e+02  1.4857610486101871e+02  1.4839082714270964e+02  1.4820444179403478e+02  1.4801753609101416e+02  1.4783047987132696e+02  1.4764351404770647e+02  1.4745680500371094e+02  1.4727047650489649e+02  1.4708462820759064e+02  1.4689934550342255e+02  1.4671470543946870e+02  1.4653077967589599e+02  1.4634763677517824e+02  1.4616534169880995e+02  1.4598395818469228e+02  1.4580354930565997e+02  1.4562417641892472e+02  1.4544590045375412e+02  1.4526877940128702e+02  1.4509287226063552e+02  1.4491823742768452e+02  1.4474493038992509e+02  1.4457300769043871e+02  1.4440252497018668e+02  1.4423353703579178e+02  1.4406609777445257e+02  1.4390026029382787e+02  1.4373607742434936e+02  1.4357360109284789e+02  1.4341288334020851e+02  1.4325397294934322e+02  1.4309691950228390e+02  1.4294177291086905e+02  1.4278858164555956e+02  1.4263739321985031e+02  1.4248825417358916e+02  1.4234121029827577e+02  1.4219630626386561e+02  1.4205358389187219e+02  1.4191310275611406e+02  1.4177489126331994e+02  1.4163898616031230e+02  1.4150544137394670e+02  1.4137429265596833e+02  1.4124555863076608e+02  1.4111941201244582e+02  1.4099560537979198e+02  1.4087446354196908e+02  1.4075588739307253e+02  1.4063993418769874e+02  1.4052664049959233e+02  1.4041604058829597e+02  1.4030816775593513e+02  1.4020305433972734e+02  1.4010073015345063e+02  1.4000120185960250e+02  1.3990465275749742e+02  1.3981078410469092e+02  1.3971995261680800e+02  1.3963202845880414e+02  1.3954703718117116e+02  1.3946516661310713e+02  1.3938609857271226e+02  1.3931020018107549e+02  1.3923733190164981e+02  1.3916754081070562e+02  1.3910084949921756e+02  1.3903727783716135e+02  1.3897684410576275e+02  1.3891956203141231e+02  1.3886545227084969e+02  1.3881454508004111e+02  1.3876684702932005e+02  1.3872235591200752e+02  1.3868108567276127e+02  1.3864306239182895e+02  1.3860829126651788e+02  1.3857677848264620e+02  1.3854852686915814e+02  1.3852353258846165e+02  1.3850178314510259e+02  1.3848325413030742e+02  1.3846787736837862e+02  1.3845553887697483e+02  1.3844604701750745e+02  1.3843919188578181e+02  1.3843442814278603e+02  1.3843138013037927e+02  1.3842952050690059e+02  1.3842846044174189e+02  1.3842793103334174e+02  1.3842764227603487e+02  1.3842727352397179e+02  1.3842681313438632e+02  1.3842642355484233e+02  1.3842614427076211e+02  1.3842562631699221e+02  1.3842440596203940e+02  1.3842166367092403e+02  1.3768902496009781e+02  1.3697751099343887e+02  1.3627599863922961e+02  1.3558435478487161e+02  1.3490283253680826e+02  1.3423179024705672e+02  1.3357163574576370e+02  1.3292279052195016e+02  1.3228567770289044e+02  1.3166071727882857e+02  1.3104832375105391e+02  1.3044890476615575e+02  1.2986286022434487e+02  1.2929058164254957e+02  1.2873245166492677e+02  1.2818884366354382e+02  1.2766012139700040e+02  1.2714663870813898e+02  1.2664873924949873e+02  1.2616675622951598e+02  1.2570101217507266e+02  1.2525181870757591e+02  1.2481947633074316e+02  1.2440427422889358e+02  1.2400649007495512e+02  1.2362638984766630e+02  1.2326422765762578e+02  1.2292024558197038e+02  1.2259467350753874e+02  1.2228772898243818e+02  1.2199961707596874e+02  1.2173053024688755e+02  1.2148064822001226e+02  1.2125013787117769e+02  1.2103915312056411e+02  1.2084783483442344e+02  1.2067631073523071e+02  1.2052469532028928e+02  1.2039308978881789e+02  1.2028158197754654e+02  1.2019024630484562e+02  1.2011914372341131e+02  1.2006832168152609e+02  1.2003781409291055e+02  1.2002764131518022e+02  1.2003781013691579e+02  1.2006831377335217e+02  1.2011913187068902e+02  1.2019023051902120e+02  1.2028156227388206e+02  1.2039306618639219e+02  1.2052466784199942e+02  1.2067627940779460e+02  1.2084779968838397e+02  1.2103911419029538e+02  1.2125009519489372e+02  1.2148060183977999e+02  1.2173048020864373e+02  1.2199956342954351e+02  1.2228767178158579e+02  1.2259461280997809e+02  1.2292018144943732e+02  1.2326416015593979e+02  1.2362631904681440e+02  1.2400641604919743e+02  1.2440419705689297e+02  1.2481939609572484e+02  1.2525173549751862e+02  1.2570092608293685e+02  1.2616666735350817e+02  1.2664864769336971e+02  1.2714654458150648e+02  1.2766002481567308e+02  1.2818874474980532e+02  1.2873235054770458e+02  1.2929047845735300e+02  1.2986275511279817e+02  1.3044879787486619e+02  1.3104821522953554e+02  1.3166060727626939e+02  1.3228556636396326e+02  1.3292267798324022e+02  1.3357152213918738e+02  1.3423167573692655e+02  1.3490271749913177e+02  1.3558424025559276e+02  1.3627588048553451e+02  1.3697739020906107e+02  1.3768890313509723e+02  1.3842151893253222e+02  1.3842429158025240e+02  1.3842548581191730e+02  1.3842601195948887e+02  1.3842629607296698e+02  1.3842668515338028e+02  1.3842714496614664e+02  1.3842751048191946e+02  1.3842779775001165e+02  1.3842832665659486e+02  1.3842937880396366e+02  1.3843124367706105e+02  1.3843430405819078e+02  1.3843904741006722e+02  1.3844594996562867e+02  1.3845542933638154e+02  1.3846775083228138e+02  1.3848312750517732e+02  1.3850166169430562e+02  1.3852340499960221e+02  1.3854839707462273e+02  1.3857664857406044e+02  1.3860816144161632e+02  1.3864293219057933e+02  1.3868095380379208e+02  1.3872221685182578e+02  1.3876671013512973e+02  1.3881442105112743e+02  1.3886533580344857e+02  1.3891943951998633e+02  1.3897671632322701e+02  1.3903714937070518e+02  1.3910072086394933e+02  1.3916741203735546e+02  1.3923720315556116e+02  1.3931007352972716e+02  1.3938600153679195e+02  1.3946496462993451e+02  1.3954693934263943e+02  1.3963190128692185e+02  1.3971982514837129e+02  1.3981068469247080e+02  1.3990445278639478e+02  1.4000110141675714e+02  1.4010060168753674e+02  1.4020292380653751e+02  1.4030803707935408e+02  1.4041590992102479e+02  1.4052650987873650e+02  1.4063980364746476e+02  1.4075575706825509e+02  1.4087433511885112e+02  1.4099550191645906e+02  1.4111922074255943e+02  1.4124545407500921e+02  1.4137416360110086e+02  1.4150531020662788e+02  1.4163885396309172e+02  1.4177475413317177e+02  1.4191296918817929e+02  1.4205345681666014e+02  1.4219617392044273e+02  1.4234107661646377e+02  1.4248812025606435e+02  1.4263725945010540e+02  1.4278844808359537e+02  1.4294163931722838e+02  1.4309678558121900e+02  1.4325383856928298e+02  1.4341274924348187e+02  1.4357346785085832e+02  1.4373594393636662e+02  1.4390012634344745e+02  1.4406596321561906e+02  1.4423340200591679e+02  1.4440238947507356e+02  1.4457287166798343e+02  1.4474479388807694e+02  1.4491810069073583e+02  1.4509273590855435e+02  1.4526864264288261e+02  1.4544576309140825e+02  1.4562403772596565e+02  1.4580340940604788e+02  1.4598381753883407e+02  1.4616520384683110e+02  1.4634749653124183e+02  1.4653063995314844e+02  1.4671456591894739e+02  1.4689920450430367e+02  1.4708448628741164e+02  1.4727033382428237e+02  1.4745666261531287e+02  1.4764336996967111e+02  1.4783033522783984e+02  1.4801739217164925e+02  1.4820429861469174e+02  1.4839068516155561e+02  1.4857596653831192e+02  1.4875921993442930e+02  1.4893905198496481e+02  1.4911355707011384e+02  1.4928085844013651e+02  1.4943936663086973e+02  1.4958921280385314e+02  1.4973095449267242e+02  1.4986699249594989e+02  1.5000000000000000e+02  1.5000000000000000e+02  1.4999999999999997e+02  1.5000000000000003e+02  1.5000000000000003e+02  1.5000000000000000e+02  1.5000000000000000e+02  1.5000000000000000e+02  1.5000000000000000e+02  1.5000000000000000e+02  1.5000000000000000e+02  1.5000000000000000e+02  1.5000000000000000e+02  1.5000000000000000e+02  1.5000000000000000e+02  1.5000000000000000e+02  1.5000000000000000e+02  1.5000000000000003e+02  1.5000000000000000e+02  1.5000000000000000e+02  1.5000000000000000e+02  1.5000000000000000e+02  1.5000000000000000e+02  1.5000000000000000e+02  1.5000000000000000e+02  1.5000000000000000e+02  1.5000000000000000e+02  1.5000000000000000e+02  1.5000000000000000e+02  1.5000000000000000e+02  1.5000000000000000e+02  1.5000000000000000e+02  1.5000000000000000e+02  1.5000000000000000e+02  1.5000000000000000e+02  1.5000000000000000e+02  1.5000000000000000e+02  1.5000000000000000e+02  1.5000000000000000e+02  1.5000000000000000e+02  1.5000000000000000e+02  1.5000000000000000e+02  1.5000000000000000e+02  1.5000000000000000e+02  1.4999999999999997e+02  1.5000000000000000e+02  1.5000000000000000e+02  1.5000000000000000e+02  1.5000000000000000e+02  1.5000000000000000e+02  1.5000000000000000e+02  1.5000000000000000e+02  1.5000000000000000e+02  1.5000000000000000e+02  1.5000000000000000e+02  1.5000000000000000e+02  1.5000000000000000e+02  1.5000000000000003e+02  1.5000000000000000e+02  1.5000000000000000e+02  1.5000000000000000e+02  1.5000000000000000e+02  1.5000000000000000e+02  1.5000000000000000e+02  1.5000000000000000e+02  1.5000000000000000e+02  1.5000000000000000e+02  1.5000000000000000e+02  1.5000000000000000e+02  1.5000000000000000e+02  1.5000000000000000e+02  1.5000000000000000e+02  1.5000000000000000e+02  1.5000000000000000e+02  1.5000000000000000e+02  1.5000000000000000e+02  1.5000000000000000e+02  1.5000000000000000e+02  1.5000000000000000e+02  1.5000000000000000e+02  1.5000000000000000e+02  1.5000000000000000e+02  1.5000000000000000e+02  1.5000000000000000e+02  1.5000000000000000e+02  1.5000000000000000e+02  1.5000000000000000e+02  1.5000000000000000e+02  1.5000000000000000e+02  1.5000000000000000e+02  1.5000000000000000e+02  1.5000000000000000e+02  1.5000000000000000e+02  1.5000000000000000e+02  1.5000000000000000e+02  1.5000000000000000e+02  1.5000000000000000e+02  1.5000000000000000e+02  1.5000000000000000e+02  1.3840758352269984e+02  1.3840988356250315e+02  1.3841705623942292e+02  1.3842820380122001e+02  1.3844298270154485e+02  1.3846122991878750e+02  1.3848286607770788e+02  1.3850784819487109e+02  1.3853614715246866e+02  1.3856774003251942e+02  1.3860262019276175e+02  1.3864077251864020e+02  1.3868217740886769e+02  1.3872683770494078e+02  1.3877471564887742e+02  1.3882581807017792e+02  1.3888012087685246e+02  1.3893760647023333e+02  1.3899825824865314e+02  1.3906205772604466e+02  1.3912900205104023e+02  1.3919904421665350e+02  1.3927218687694818e+02  1.3934838949268573e+02  1.3942764846462563e+02  1.3950992309034498e+02  1.3959519297762819e+02  1.3968345284776584e+02  1.3977464136213106e+02  1.3986876274910159e+02  1.3996576235398408e+02  1.4006563504262627e+02  1.4016833695030374e+02  1.4027384047040107e+02  1.4038212273967591e+02  1.4049312707810552e+02  1.4060684866076201e+02  1.4072323413690680e+02  1.4084225317094911e+02  1.4096388737446748e+02  1.4108806049678648e+02  1.4121477716670233e+02  1.4134396121177477e+02  1.4147560861143751e+02  1.4160965713276519e+02  1.4174607252335514e+02  1.4188481165592842e+02  1.4202582948993225e+02  1.4216909513736590e+02  1.4231455133837125e+02  1.4246215760728097e+02  1.4261186786495594e+02  1.4276363691775097e+02  1.4291741828907729e+02  1.4307315950146059e+02  1.4323082521979225e+02  1.4339035227912925e+02  1.4355169526712953e+02  1.4371480466549903e+02  1.4387962763033397e+02  1.4404612772096476e+02  1.4421420993538547e+02  1.4438387508068425e+02  1.4455503251665925e+02  1.4472763746512476e+02  1.4490165508658075e+02  1.4507697898367451e+02  1.4525361198888953e+02  1.4543144113581997e+02  1.4561046204705102e+02  1.4579057657995057e+02  1.4597173759099627e+02  1.4615390179903227e+02  1.4633697262285176e+02  1.4652091494013385e+02  1.4670566889127045e+02  1.4689116098613093e+02  1.4707733594934757e+02  1.4726414187433755e+02  1.4745149554037363e+02  1.4763937864410673e+02  1.4782779752767877e+02  1.4801670884086053e+02  1.4820622846897470e+02  1.4839659154262131e+02  1.4858831737856542e+02  1.4878266078623614e+02  1.4898249976568061e+02  1.4919724011909608e+02  1.4965640830438235e+02  1.4975158195518924e+02  1.4981216819280615e+02  1.4985378657195872e+02  1.4988318351080517e+02  1.4990416951193899e+02  1.4991918375808453e+02  1.4992989485942891e+02  1.4993747862826197e+02  1.4994278092928019e+02  1.4994641610139334e+02  1.4994883190695495e+02  1.4995035784721196e+02  1.4995123388580095e+02  1.4995163718366285e+02  1.4995169823920824e+02  1.4995151277866199e+02  1.4995115335900272e+02  1.4995067146316589e+02  1.4995010664455631e+02  1.4994948755059070e+02  1.4994883632354893e+02  1.4994816839791130e+02  1.4994749706629111e+02  1.4994683123079864e+02  1.4994617792175916e+02  1.4994554231638637e+02  1.4994492943270853e+02  1.4994434188199423e+02  1.4994378194301163e+02  1.4994325231023538e+02  1.4994275440686062e+02  1.4994228955630285e+02  1.4994185885606404e+02  1.4994146321172559e+02  1.4994110337476036e+02  1.4994077997144635e+02  1.4994049352436096e+02  1.4994024446834501e+02  1.4994003316283303e+02  1.4993985989870916e+02  1.4993972490562726e+02  1.4993962835736843e+02  1.4993957038001790e+02  1.4993955104918533e+02  1.4993957038704065e+02  1.4993962839487637e+02  1.4993972495527731e+02  1.4993985995730466e+02  1.4994003322998009e+02  1.4994024454741151e+02  1.4994049366971910e+02  1.4994078015467574e+02  1.4994110356013095e+02  1.4994146331200946e+02  1.4994185879154742e+02  1.4994228952539427e+02  1.4994275451324805e+02  1.4994325260203252e+02  1.4994378246395289e+02  1.4994434215786657e+02  1.4994492966016256e+02  1.4994554247346042e+02  1.4994617790432545e+02  1.4994683117382326e+02  1.4994749718374101e+02  1.4994816806351923e+02  1.4994883554631272e+02  1.4994948693346822e+02  1.4995010580124384e+02  1.4995067047015164e+02  1.4995115189052177e+02  1.4995151101141175e+02  1.4995169537195616e+02  1.4995163251964215e+02  1.4995122702202934e+02  1.4995034866860362e+02  1.4994882049397793e+02  1.4994640245754510e+02  1.4994276989005681e+02  1.4993746140648756e+02  1.4992987311789807e+02  1.4991916802470749e+02  1.4990415768247021e+02  1.4988318193353277e+02  1.4985380747506693e+02  1.4981223202743206e+02  1.4975158071002539e+02  1.4965568022170658e+02  1.4919730546372736e+02  1.4898275117226768e+02  1.4878286742193646e+02  1.4858850063596685e+02  1.4839674712778057e+02  1.4820637422167914e+02  1.4801685405194658e+02  1.4782794612354095e+02  1.4763952550012968e+02  1.4745164224323057e+02  1.4726428410902130e+02  1.4707747746814982e+02  1.4689130564820158e+02  1.4670579901825903e+02  1.4652106806983554e+02  1.4633711144592854e+02  1.4615403185498590e+02  1.4597187912441601e+02  1.4579071897222676e+02  1.4561059738360015e+02  1.4543157447096948e+02  1.4525375102164807e+02  1.4507711522432166e+02  1.4490179105200255e+02  1.4472777430890733e+02  1.4455516811904576e+02  1.4438401049930238e+02  1.4421434436055554e+02  1.4404626228583464e+02  1.4387976208849665e+02  1.4371493795398442e+02  1.4355182686756115e+02  1.4339048586468536e+02  1.4323096092950928e+02  1.4307329224617644e+02  1.4291755109753498e+02  1.4276376875954918e+02  1.4261197895666345e+02  1.4246233944177146e+02  1.4231465298022934e+02  1.4216923105611235e+02  1.4202596696189579e+02  1.4188495290971258e+02  1.4174619379211197e+02  1.4160978915188912e+02  1.4147574072107955e+02  1.4134409856091497e+02  1.4121490330556486e+02  1.4108818992395098e+02  1.4096401012577235e+02  1.4084238920672263e+02  1.4072336648065772e+02  1.4060697786629180e+02  1.4049325612200263e+02  1.4038225582407648e+02  1.4027396721089218e+02  1.4016847020387442e+02  1.4006577081841320e+02  1.3996589433980569e+02  1.3986889374071646e+02  1.3977477201670024e+02  1.3968358237763533e+02  1.3959532587885701e+02  1.3951005244864947e+02  1.3942777505407483e+02  1.3934851918565147e+02  1.3927231704091091e+02  1.3919917403825497e+02  1.3912913253321702e+02  1.3906218572688815e+02  1.3899838395340493e+02  1.3893773061754516e+02  1.3888024704730523e+02  1.3882594372475592e+02  1.3877483053605042e+02  1.3872696490125912e+02  1.3868232355829713e+02  1.3864090663858516e+02  1.3860275049658671e+02  1.3856786925325810e+02  1.3853627800046650e+02  1.3850798324615613e+02  1.3848299569661950e+02  1.3846135258420028e+02  1.3844310539705842e+02  1.3842833322548890e+02  1.3841718359217225e+02  1.3840998718863833e+02  1.3840768239629818e+02  1.4951992174877284e+02  1.4953575764454865e+02  1.4989096119370618e+02  1.4990167396894344e+02  1.3867376804147216e+02  1.4995538613555567e+02  1.4994805691963612e+02  1.4773222256854004e+02  1.4994167764164919e+02  1.3853443379257112e+02  1.4196190730210142e+02  1.4331888329600727e+02  1.4993306604733269e+02  1.3850714963175389e+02  1.4380373160616921e+02  1.4413628386969495e+02  1.4447516019354657e+02  1.4992077264262272e+02  1.4482135259515300e+02  1.4535156962015344e+02  1.4990368770823929e+02  1.4225017403455260e+02  1.4588511859289102e+02  1.4625051120146878e+02  1.4680116316263116e+02  1.4849325343863595e+02  1.4987990603882739e+02  1.3844802248681526e+02  1.3844814991940652e+02  1.4717295813859283e+02  1.4907819319403725e+02  1.4269558238605799e+02  1.3842017638776124e+02  1.4300275411316142e+02  1.4964793873961028e+02  1.4736328244838069e+02  1.4963973181129219e+02  1.3841981217626463e+02  1.4773690557725462e+02  1.4980023232244838e+02  1.4980009855291280e+02  1.4928317498193093e+02  1.4811697049277998e+02  1.4868317523407680e+02  1.4811180765139017e+02  1.3848451756455214e+02  1.3843207440837318e+02  1.3859755551720855e+02  1.4995861950702835e+02  1.3842148347724449e+02  1.3876296931675472e+02  1.4998995410792270e+02  1.4995967072944805e+02  1.3886504825168788e+02  1.3842534996075196e+02  1.4483077413431434e+02  1.4999084984729066e+02  1.4995957375761157e+02  1.3897988306170217e+02  1.3856448139438308e+02  1.4995889132484945e+02  1.3842560559397882e+02  1.4999106478198320e+02  1.3910733882477066e+02  1.4995793086110027e+02  1.3863416202820247e+02  1.3924726689376226e+02  1.4699154549751427e+02  1.4168686528075486e+02  1.4995686229401250e+02  1.4553434297607151e+02  1.4130872685922654e+02  1.3871716781837023e+02  1.3939949922838909e+02  1.4999138893207135e+02  1.4995578138241140e+02  1.3934666233942079e+02  1.4662050837416689e+02  1.3956385481272207e+02  1.4999139840313862e+02  1.4995474255918728e+02  1.4093377972323759e+02  1.4606926594640848e+02  1.3974014189557190e+02  1.4995377791032249e+02  1.3958808119361200e+02  1.4999142054677674e+02  1.3992814524760195e+02  1.4995290652586374e+02  1.3976394211033340e+02  1.4012764274098771e+02  1.4046999475341630e+02  1.4995214075116377e+02  1.4033839736176913e+02  1.4995148846856969e+02  1.4025423313452964e+02  1.4999125913813981e+02  1.4056015243026573e+02  1.4995095502647570e+02  1.4004958163405232e+02  1.4079264336349831e+02  1.4518007266965427e+02  1.4995054409404929e+02  1.4103559168208895e+02  1.4995025816677884e+02  1.4128869706044722e+02  1.4995009881810518e+02  1.4069659903408038e+02  1.3881253180122854e+02  1.4448690231588552e+02  1.4999063365675099e+02  1.4155165705670589e+02  1.4414890073808485e+02  1.4999042722560625e+02  1.3920090238694951e+02  1.4381720105189012e+02  1.4999023697303531e+02  1.3906750996120766e+02  1.4999006677614977e+02  1.4349222362736924e+02  1.3894663575499578e+02  1.4998991907691416e+02  1.4317437772000486e+02  1.4286406134873488e+02  1.4998979544261246e+02  1.4256166096391470e+02  1.4998969690413455e+02  1.4995006690974841e+02  1.4226755128354677e+02  1.4998962420158236e+02  1.4999007384354385e+02  1.4198209541908642e+02  1.4955272299249543e+02  1.4170564442887198e+02  1.4157103334612188e+02  1.4998813951345727e+02  1.4365397926102065e+02  1.3849092974381435e+02  1.4518020911731892e+02  1.4571333385593488e+02  1.4736342598095445e+02  1.4662237131652969e+02  1.4256179493909360e+02  1.4607418215755550e+02  1.4699168706320643e+02  1.4996121206149581e+02  1.4465826823831202e+02  1.4431727573439275e+02  1.4885126202677168e+02  1.3844922929175445e+02  1.4398237099278762e