<?xml version="1.0"?>
<VTKFile type="UnstructuredGrid"  version="0.1"  >
<UnstructuredGrid>
<Piece  NumberOfPoints="11335" NumberOfCells="22258">
<Points>
<DataArray  type="Float64"  NumberOfComponents="3"  format="ascii">0 0 0  0 10 0  0.5 10 0  0.5 9.5 0  9.5 9.5 0  9.5 10 0  10 10 0  10 0 0  0.5 0.5 0  9.5 0.5 0  0 0.09999999999992584 0  0 0.199999999999856 0  0 0.2999999999997771 0  0 0.3999999999996677 0  0 0.4999999999995511 0  0 0.5999999999994683 0  0 0.6999999999993983 0  0 0.7999999999993286 0  0 0.8999999999992587 0  0 0.9999999999991888 0  0 1.099999999999119 0  0 1.199999999999033 0  0 1.299999999998852 0  0 1.399999999998576 0  0 1.499999999998284 0  0 1.599999999997992 0  0 1.6999999999977 0  0 1.799999999997408 0  0 1.899999999997116 0  0 1.999999999996825 0  0 2.099999999996533 0  0 2.199999999996241 0  0 2.299999999995949 0  0 2.399999999995657 0  0 2.499999999995365 0  0 2.599999999995073 0  0 2.699999999994782 0  0 2.79999999999449 0  0 2.899999999994198 0  0 2.999999999993906 0  0 3.099999999993614 0  0 3.199999999993322 0  0 3.299999999993029 0  0 3.399999999992738 0  0 3.499999999992446 0  0 3.599999999992154 0  0 3.699999999991863 0  0 3.799999999991571 0  0 3.899999999991278 0  0 3.999999999991022 0  0 4.099999999991035 0  0 4.199999999991187 0  0 4.299999999991338 0  0 4.399999999991491 0  0 4.499999999991642 0  0 4.599999999991795 0  0 4.699999999991947 0  0 4.799999999992099 0  0 4.89999999999225 0  0 4.999999999992403 0  0 5.099999999992555 0  0 5.199999999992706 0  0 5.299999999992858 0  0 5.39999999999301 0  0 5.499999999993161 0  0 5.599999999993313 0  0 5.699999999993466 0  0 5.799999999993618 0  0 5.899999999993771 0  0 5.999999999993922 0  0 6.099999999994074 0  0 6.199999999994227 0  0 6.299999999994378 0  0 6.39999999999453 0  0 6.499999999994682 0  0 6.599999999994833 0  0 6.699999999994986 0  0 6.799999999995138 0  0 6.899999999995289 0  0 6.999999999995442 0  0 7.099999999995594 0  0 7.199999999995747 0  0 7.299999999995897 0  0 7.39999999999605 0  0 7.499999999996202 0  0 7.599999999996353 0  0 7.699999999996505 0  0 7.799999999996658 0  0 7.899999999996808 0  0 7.999999999996962 0  0 8.099999999997113 0  0 8.199999999997265 0  0 8.299999999997418 0  0 8.399999999997569 0  0 8.499999999997721 0  0 8.599999999997873 0  0 8.699999999998024 0  0 8.799999999998176 0  0 8.899999999998329 0  0 8.999999999998479 0  0 9.099999999998634 0  0 9.199999999998786 0  0 9.299999999998937 0  0 9.399999999999089 0  0 9.499999999999241 0  0 9.599999999999392 0  0 9.699999999999545 0  0 9.799999999999697 0  0 9.899999999999848 0  0.09999999999977893 10 0  0.1999999999994874 10 0  0.2999999999994734 10 0  0.3999999999997367 10 0  0.5 9.9 0  0.5 9.800000000000001 0  0.5 9.699999999999999 0  0.5 9.6 0  0.5999999999997725 9.5 0  0.6999999999995451 9.5 0  0.7999999999993451 9.5 0  0.8999999999991337 9.5 0  0.9999999999989062 9.5 0  1.099999999998702 9.5 0  1.199999999998578 9.5 0  1.299999999998473 9.5 0  1.39999999999837 9.5 0  1.499999999998266 9.5 0  1.599999999998133 9.5 0  1.699999999997873 9.5 0  1.799999999997521 9.5 0  1.899999999997171 9.5 0  1.99999999999682 9.5 0  2.099999999996469 9.5 0  2.199999999996118 9.5 0  2.299999999995767 9.5 0  2.399999999995416 9.5 0  2.499999999995065 9.5 0  2.599999999994715 9.5 0  2.699999999994364 9.5 0  2.799999999994013 9.5 0  2.899999999993662 9.5 0  2.999999999993312 9.5 0  3.099999999992961 9.5 0  3.19999999999261 9.5 0  3.299999999992259 9.5 0  3.399999999991908 9.5 0  3.499999999991557 9.5 0  3.599999999991207 9.5 0  3.699999999990856 9.5 0  3.799999999990505 9.5 0  3.899999999990154 9.5 0  3.999999999989803 9.5 0  4.099999999989453 9.5 0  4.199999999989102 9.5 0  4.299999999988751 9.5 0  4.3999999999884 9.5 0  4.49999999998805 9.5 0  4.599999999987698 9.5 0  4.699999999987348 9.5 0  4.799999999986997 9.5 0  4.899999999986646 9.5 0  4.999999999986469 9.5 0  5.099999999986931 9.5 0  5.199999999987567 9.5 0  5.299999999988204 9.5 0  5.39999999998884 9.5 0  5.499999999989477 9.5 0  5.599999999990114 9.5 0  5.69999999999075 9.5 0  5.799999999991387 9.5 0  5.899999999992023 9.5 0  5.999999999992659 9.5 0  6.099999999993296 9.5 0  6.199999999993933 9.5 0  6.299999999994569 9.5 0  6.399999999995206 9.5 0  6.499999999995842 9.5 0  6.599999999996479 9.5 0  6.699999999997114 9.5 0  6.799999999997752 9.5 0  6.899999999998387 9.5 0  6.999999999999023 9.5 0  7.099999999999659 9.5 0  7.200000000000294 9.5 0  7.300000000000929 9.5 0  7.400000000001565 9.5 0  7.5000000000022 9.5 0  7.600000000002836 9.5 0  7.700000000003472 9.5 0  7.800000000004108 9.5 0  7.900000000004743 9.5 0  8.000000000005148 9.5 0  8.100000000004911 9.5 0  8.200000000004561 9.5 0  8.300000000004211 9.5 0  8.400000000003859 9.5 0  8.500000000003508 9.5 0  8.600000000003158 9.5 0  8.700000000002806 9.5 0  8.800000000002456 9.5 0  8.900000000002105 9.5 0  9.000000000001755 9.5 0  9.100000000001405 9.5 0  9.200000000001053 9.5 0  9.300000000000701 9.5 0  9.40000000000035 9.5 0  9.5 9.6 0  9.5 9.699999999999999 0  9.5 9.800000000000001 0  9.5 9.9 0  9.6 10 0  9.699999999999999 10 0  9.800000000000001 10 0  9.9 10 0  10 9.9 0  10 9.799999999999999 0  10 9.699999999999999 0  10 9.6 0  10 9.499999999999998 0  10 9.399999999999999 0  10 9.299999999999999 0  10 9.199999999999999 0  10 9.099999999999998 0  10 8.999999999999998 0  10 8.899999999999999 0  10 8.799999999999997 0  10 8.699999999999998 0  10 8.599999999999998 0  10 8.499999999999996 0  10 8.399999999999997 0  10 8.299999999999997 0  10 8.199999999999998 0  10 8.099999999999998 0  10 7.999999999999997 0  10 7.899999999999997 0  10 7.799999999999997 0  10 7.699999999999998 0  10 7.599999999999998 0  10 7.499999999999998 0  10 7.399999999999997 0  10 7.299999999999997 0  10 7.199999999999998 0  10 7.099999999999998 0  10 6.999999999999997 0  10 6.899999999999998 0  10 6.799999999999997 0  10 6.699999999999998 0  10 6.599999999999998 0  10 6.499999999999998 0  10 6.399999999999997 0  10 6.299999999999998 0  10 6.199999999999998 0  10 6.099999999999998 0  10 5.999999999999997 0  10 5.899999999999998 0  10 5.799999999999998 0  10 5.699999999999998 0  10 5.599999999999998 0  10 5.499999999999998 0  10 5.399999999999999 0  10 5.299999999999999 0  10 5.199999999999998 0  10 5.099999999999999 0  10 4.999999999999999 0  10 4.899999999999998 0  10 4.799999999999999 0  10 4.699999999999998 0  10 4.599999999999999 0  10 4.499999999999998 0  10 4.399999999999999 0  10 4.299999999999998 0  10 4.199999999999999 0  10 4.099999999999998 0  10 3.999999999999999 0  10 3.899999999999999 0  10 3.799999999999999 0  10 3.699999999999999 0  10 3.599999999999999 0  10 3.499999999999997 0  10 3.399999999999998 0  10 3.299999999999999 0  10 3.199999999999998 0  10 3.099999999999998 0  10 2.999999999999999 0  10 2.899999999999999 0  10 2.799999999999998 0  10 2.699999999999998 0  10 2.599999999999998 0  10 2.499999999999999 0  10 2.399999999999999 0  10 2.299999999999999 0  10 2.199999999999999 0  10 2.1 0  10 1.999999999999998 0  10 1.899999999999999 0  10 1.799999999999999 0  10 1.699999999999999 0  10 1.6 0  10 1.5 0  10 1.4 0  10 1.299999999999999 0  10 1.199999999999999 0  10 1.099999999999998 0  10 0.9999999999999982 0  10 0.9000000000000004 0  10 0.7999999999999989 0  10 0.6999999999999993 0  10 0.6000000000000014 0  10 0.5 0  10 0.3999999999999986 0  10 0.2999999999999989 0  10 0.1999999999999993 0  10 0.09999999999999964 0  9.9 0 0  9.799999999999999 0 0  9.699999999999999 0 0  9.6 0 0  9.499999999999998 0 0  9.399999999999999 0 0  9.299999999999999 0 0  9.199999999999999 0 0  9.099999999999998 0 0  8.999999999999998 0 0  8.899999999999999 0 0  8.799999999999997 0 0  8.699999999999998 0 0  8.599999999999998 0 0  8.499999999999996 0 0  8.399999999999997 0 0  8.299999999999997 0 0  8.199999999999998 0 0  8.099999999999998 0 0  7.999999999999997 0 0  7.899999999999997 0 0  7.799999999999997 0 0  7.699999999999998 0 0  7.599999999999998 0 0  7.499999999999998 0 0  7.399999999999997 0 0  7.299999999999997 0 0  7.199999999999998 0 0  7.099999999999998 0 0  6.999999999999997 0 0  6.899999999999998 0 0  6.799999999999997 0 0  6.699999999999998 0 0  6.599999999999998 0 0  6.499999999999998 0 0  6.399999999999997 0 0  6.299999999999998 0 0  6.199999999999998 0 0  6.099999999999998 0 0  5.999999999999997 0 0  5.899999999999998 0 0  5.799999999999998 0 0  5.699999999999998 0 0  5.599999999999998 0 0  5.499999999999998 0 0  5.399999999999999 0 0  5.299999999999999 0 0  5.199999999999998 0 0  5.099999999999999 0 0  4.999999999999999 0 0  4.899999999999998 0 0  4.799999999999999 0 0  4.699999999999998 0 0  4.599999999999999 0 0  4.499999999999998 0 0  4.399999999999999 0 0  4.299999999999998 0 0  4.199999999999999 0 0  4.099999999999998 0 0  3.999999999999999 0 0  3.899999999999999 0 0  3.799999999999999 0 0  3.699999999999999 0 0  3.599999999999999 0 0  3.499999999999997 0 0  3.399999999999998 0 0  3.299999999999999 0 0  3.199999999999998 0 0  3.099999999999998 0 0  2.999999999999999 0 0  2.899999999999999 0 0  2.799999999999998 0 0  2.699999999999998 0 0  2.599999999999998 0 0  2.499999999999999 0 0  2.399999999999999 0 0  2.299999999999999 0 0  2.199999999999999 0 0  2.1 0 0  1.999999999999998 0 0  1.899999999999999 0 0  1.799999999999999 0 0  1.699999999999999 0 0  1.6 0 0  1.5 0 0  1.4 0 0  1.299999999999999 0 0  1.199999999999999 0 0  1.099999999999998 0 0  0.9999999999999982 0 0  0.9000000000000004 0 0  0.7999999999999989 0 0  0.6999999999999993 0 0  0.6000000000000014 0 0  0.5 0 0  0.3999999999999986 0 0  0.2999999999999989 0 0  0.1999999999999993 0 0  0.09999999999999964 0 0  9.5 9.400000000000382 0  9.5 9.300000000000763 0  9.5 9.200000000001145 0  9.5 9.100000000001527 0  9.5 9.000000000001908 0  9.5 8.90000000000229 0  9.5 8.800000000002671 0  9.5 8.700000000003053 0  9.5 8.600000000003435 0  9.5 8.500000000003816 0  9.5 8.400000000004198 0  9.5 8.30000000000458 0  9.5 8.200000000004961 0  9.5 8.100000000005343 0  9.5 8.000000000005723 0  9.5 7.90000000000610
[...]
<PointData  Scalars="f_18"> 
<DataArray  type="Float64"  Name="f_18"  format="ascii">1.5000000000000000e+02  3.0146168532665317e+01  2.9932692457461105e+01  2.7391550931131992e+01  2.7402610346265430e+01  2.9921411079102313e+01  3.0134948691428665e+01  1.5000000000000000e+02  1.4538693608615827e+02  1.4538672638124243e+02  1.4875382288988362e+02  1.4753173331070411e+02  1.4628172731898218e+02  1.4497826830138808e+02  1.4360964107766281e+02  1.4217654748917809e+02  1.4069079928103065e+02  1.3916899922904747e+02  1.3762654321182356e+02  1.3607487888469498e+02  1.3452142141574157e+02  1.3297060920123167e+02  1.3142500704827606e+02  1.2988605244074253e+02  1.2835454298044945e+02  1.2683091051190527e+02  1.2531538551310435e+02  1.2380807940133126e+02  1.2230903704977828e+02  1.2081826134550161e+02  1.1933573569554532e+02  1.1786141548647669e+02  1.1639525303150849e+02  1.1493720143933972e+02  1.1348720372457811e+02  1.1204520509796006e+02  1.1061113312212889e+02  1.0918492815973651e+02  1.0776653054693465e+02  1.0635586646614153e+02  1.0495287331006662e+02  1.0355748714643454e+02  1.0216964375783203e+02  1.0078927840842587e+02  9.9416326615011457e+01  9.8050726798854427e+01  9.6692416608098810e+01  9.5341338943077020e+01  9.3997426556344038e+01  9.2660619911477298e+01  9.1330865178690004e+01  9.0008106760221992e+01  8.8692289966119546e+01  8.7383360740999237e+01  8.6081266898258249e+01  8.4785956585973977e+01  8.3497373320974106e+01  8.2215521179421785e+01  8.0940313382583909e+01  7.9671690346384196e+01  7.8409648682303626e+01  7.7154139918767655e+01  7.5905071587954041e+01  7.4662767106821704e+01  7.3426456846211238e+01  7.2196848598075562e+01  7.0973582434461761e+01  6.9756693007337105e+01  6.8546170855474998e+01  6.7342007180303114e+01  6.6144197460699928e+01  6.4952741825782837e+01  6.3767641913927363e+01  6.2588852919383598e+01  6.1416743240918144e+01  6.0250600299589244e+01  5.9091185931818778e+01  5.7938197133642333e+01  5.6791678010130155e+01  5.5652055503558564e+01  5.4518636713912080e+01  5.3392266500401611e+01  5.2272689959070696e+01  5.1160078387368898e+01  5.0054572221033382e+01  4.8956331038008543e+01  4.7865539813884340e+01  4.6782403526277520e+01  4.5707200084329102e+01  4.4640273314083480e+01  4.3581973382386963e+01  4.2532718673497911e+01  4.1493094884891541e+01  4.0463907038159086e+01  3.9446153822962025e+01  3.8441240081556998e+01  3.7451195380663158e+01  3.6479048844137289e+01  3.5529457014522201e+01  3.4609725847137639e+01  3.3730946351017295e+01  3.2909340777396324e+01  3.2168642834540044e+01  3.1539420165042444e+01  3.1032845685173687e+01  3.0666080672321218e+01  3.0418444833754958e+01  3.0265048411016934e+01  3.0180072027118126e+01  3.0137624183372676e+01  3.0090747999973587e+01  3.0024980231083486e+01  2.9963395611400120e+01  2.9924186661772890e+01  2.9857287476675879e+01  2.9672242759586211e+01  2.9193283477920584e+01  -4.4469294896918674e+00  1.6215189747676415e+00  1.7618345498617163e-01  3.6068523026615240e-01  2.5922069792005559e-01  2.3704949205746284e-01  2.1124103938559985e-01  1.9392093524475146e-01  1.8005608639959139e-01  1.6910719089353757e-01  1.6019191470867880e-01  1.5282765877765622e-01  1.4665481917120532e-01  1.4142000623284287e-01  1.3693574779465992e-01  1.3306129764667962e-01  1.2968882210261840e-01  1.2673439844199758e-01  1.2413176870443200e-01  1.2182796005605263e-01  1.1978014336368466e-01  1.1795334262506628e-01  1.1631873808538887e-01  1.1485239141494456e-01  1.1353427563502161e-01  1.1234752831986899e-01  1.1127787056647245e-01  1.1031315055297612e-01  1.0944298180383814e-01  1.0865845421155708e-01  1.0795190150897550e-01  1.0731671295298373e-01  1.0674717994524072e-01  1.0623837050084534e-01  1.0578602610344387e-01  1.0538647670964282e-01  1.0503657059552346e-01  1.0473361645127290e-01  1.0447533568216945e-01  1.0425982330625412e-01  1.0408551618080830e-01  1.0395116756364729e-01  1.0385582723799734e-01  1.0379882661426422e-01  1.0377976837836503e-01  1.0379852039252568e-01  1.0385521367718933e-01  1.0395024441768355e-01  1.0408428005175918e-01  1.0425826960909892e-01  1.0447345859662094e-01  1.0473140885961672e-01  1.0503402400506470e-01  1.0538358115797242e-01  1.0578277004426263e-01  1.0623474066752028e-01  1.0674316118861105e-01  1.0731228804904584e-01  1.0794705093107862e-01  1.0865315586035401e-01  1.0943721068659026e-01  1.1030687840158240e-01  1.1127106538077046e-01  1.1234015381898277e-01  1.1352629059448471e-01  1.1484374886058679e-01  1.1630938430555968e-01  1.1794321594983172e-01  1.1976917264115484e-01  1.2181606272943808e-01  1.2411884835456091e-01  1.2672034160169679e-01  1.2967349406166531e-01  1.3304453683100831e-01  1.3691735808882965e-01  1.4139974630810362e-01  1.4663238724667405e-01  1.5280267100194969e-01  1.6016387117751404e-01  1.6907543524118007e-01  1.8001969013123720e-01  1.9387877247757648e-01  2.1119055381819860e-01  2.3699103224244752e-01  2.5913203466703849e-01  3.6064543694348500e-01  1.7588963118855933e-01  1.6217442777094819e+00  -4.4497839686888732e+00  2.9174849702196198e+01  2.9664807326799380e+01  2.9844632118137270e+01  2.9912552143033203e+01  2.9952439051087069e+01  3.0014081966056555e+01  3.0079974191444848e+01  3.0126530467085910e+01  3.0168892394303732e+01  3.0254022376168052e+01  3.0406836883594039e+01  3.0655223698343327e+01  3.1023663207024889e+01  3.1527088326760087e+01  3.2159720266226515e+01  3.2900155978645337e+01  3.3720950983044908e+01  3.4599827758040774e+01  3.5519770226855904e+01  3.6469470639417189e+01  3.7441761645063870e+01  3.8431959004635132e+01  3.9437027434150025e+01  4.0454931746212914e+01  4.1484262779560332e+01  4.2524007192787053e+01  4.3573408894243038e+01  4.4631884765005715e+01  4.5698972342198118e+01  4.6774296515583522e+01  4.7857547719243748e+01  4.8948467102419414e+01  5.0046835985122669e+01  5.1152468193386689e+01  5.2265204513456148e+01  5.3384908598618821e+01  5.4511463752805795e+01  5.5644770304407473e+01  5.6784743472610536e+01  5.7931311597785552e+01  5.9084414615432024e+01  6.0244002768646993e+01  6.1410035557951218e+01  6.2582480841511760e+01  6.3761314024372901e+01  6.4946517358092919e+01  6.6138079367669150e+01  6.7335994370043025e+01  6.8540262034639667e+01  6.9750886962523126e+01  7.0967878296032723e+01  7.2191249381578757e+01  7.3421017488563734e+01  7.4657203570661054e+01  7.5899832045339139e+01  7.7148930567388192e+01  7.8404529803426129e+01  7.9666663239977666e+01  8.0935367032510868e+01  8.2210679865378538e+01  8.3492642806075565e+01  8.4781299174208456e+01  8.6076694437996025e+01  8.7378876116194490e+01  8.8687893662677126e+01  9.0003798340010619e+01  9.1326643100446418e+01  9.2656482484397316e+01  9.3993372539199015e+01  9.5337370748148047e+01  9.6688535944216184e+01  9.8046928195321371e+01  9.9412608681070267e+01  1.0078563958407429e+02  1.0216608398396764e+02  1.0355400572522282e+02  1.0494946925706647e+02  1.0635253946056785e+02  1.0776328146139497e+02  1.0918176048868237e+02  1.1060804154632551e+02  1.1204218826190957e+02  1.1348425845382870e+02  1.1493432121089974e+02  1.1639244155268307e+02  1.1785870445650612e+02  1.1933308024428088e+02  1.2081568767955501e+02  1.2230654276477208e+02  1.2380564500766586e+02  1.2531301745607276e+02  1.2682861043272936e+02  1.2835233376555050e+02  1.2988388876887859e+02  1.3142289669774863e+02  1.3296859270353687e+02  1.3451948373593194e+02  1.3607302151705085e+02  1.3762477154164881e+02  1.3916735533905361e+02  1.4068933077633696e+02  1.4217481618872608e+02  1.4360804710244577e+02  1.4497622933139766e+02  1.4628114320390861e+02  1.4753131850594045e+02  1.4875341313419003e+02  1.5000000000000000e+02  1.5000000000000000e+02  1.5000000000000000e+02  1.5000000000000000e+02  1.5000000000000000e+02  1.5000000000000000e+02  1.5000000000000000e+02  1.5000000000000000e+02  1.5000000000000000e+02  1.5000000000000000e+02  1.5000000000000000e+02  1.4999999999999997e+02  1.5000000000000000e+02  1.5000000000000000e+02  1.5000000000000000e+02  1.5000000000000000e+02  1.5000000000000000e+02  1.5000000000000000e+02  1.5000000000000000e+02  1.5000000000000000e+02  1.5000000000000000e+02  1.5000000000000000e+02  1.5000000000000000e+02  1.5000000000000000e+02  1.5000000000000000e+02  1.5000000000000000e+02  1.5000000000000000e+02  1.5000000000000000e+02  1.5000000000000000e+02  1.5000000000000000e+02  1.5000000000000000e+02  1.5000000000000000e+02  1.5000000000000000e+02  1.5000000000000000e+02  1.5000000000000003e+02  1.5000000000000000e+02  1.5000000000000000e+02  1.5000000000000000e+02  1.5000000000000000e+02  1.5000000000000000e+02  1.5000000000000000e+02  1.5000000000000000e+02  1.5000000000000000e+02  1.5000000000000000e+02  1.5000000000000000e+02  1.5000000000000000e+02  1.5000000000000000e+02  1.5000000000000000e+02  1.5000000000000000e+02  1.5000000000000000e+02  1.5000000000000000e+02  1.5000000000000000e+02  1.5000000000000000e+02  1.5000000000000000e+02  1.5000000000000000e+02  1.5000000000000000e+02  1.5000000000000000e+02  1.5000000000000000e+02  1.5000000000000000e+02  1.5000000000000003e+02  1.5000000000000000e+02  1.5000000000000000e+02  1.5000000000000000e+02  1.5000000000000000e+02  1.5000000000000000e+02  1.5000000000000000e+02  1.5000000000000000e+02  1.5000000000000000e+02  1.5000000000000000e+02  1.5000000000000000e+02  1.5000000000000000e+02  1.5000000000000000e+02  1.5000000000000000e+02  1.5000000000000000e+02  1.5000000000000000e+02  1.5000000000000000e+02  1.5000000000000000e+02  1.5000000000000000e+02  1.5000000000000000e+02  1.5000000000000000e+02  1.5000000000000000e+02  1.5000000000000000e+02  1.5000000000000000e+02  1.5000000000000000e+02  1.5000000000000000e+02  1.5000000000000000e+02  1.5000000000000000e+02  1.5000000000000000e+02  1.5000000000000000e+02  1.5000000000000000e+02  1.4999999999999997e+02  1.5000000000000000e+02  1.5000000000000000e+02  1.4999999999999997e+02  1.4999999999999997e+02  1.5000000000000000e+02  1.5000000000000000e+02  1.5000000000000000e+02  1.5000000000000000e+02  2.9690473876528849e+01  3.1078656746296719e+01  3.2224756641908435e+01  3.3282591331075004e+01  3.4303068449562140e+01  3.5310945564286243e+01  3.6317311436784188e+01  3.7327740347345085e+01  3.8344425471363976e+01  3.9368756539835971e+01  4.0401636266057544e+01  4.1442765878381891e+01  4.2492200721139589e+01  4.3549981903890966e+01  4.4615482260203592e+01  4.5689003230439653e+01  4.6769982927247938e+01  4.7858379775308670e+01  4.8954019923999653e+01  5.0056761060919932e+01  5.1166558432934217e+01  5.2283087272811628e+01  5.3406459582908489e+01  5.4536419364139377e+01  5.5673057821490012e+01  5.6816135469243520e+01  5.7965700619996831e+01  5.9121745529496415e+01  6.0284099890763031e+01  6.1452874760273929e+01  6.2627920716277302e+01  6.3809347296394421e+01  6.4997038132517332e+01  6.6191044289424028e+01  6.7391359626415138e+01  6.8597945133169034e+01  6.9810888109148578e+01  7.1030129455526080e+01  7.2255721981230380e+01  7.3487696542725871e+01  7.4726026287196291e+01  7.5970803247575958e+01  7.7221992525764719e+01  7.8479697006030349e+01  7.9743893097812290e+01  8.1014645080306465e+01  8.2291990758164985e+01  8.3575972924387315e+01  8.4866640815784066e+01  8.6164023948801741e+01  8.7468188670376989e+01  8.8779180177809678e+01  9.0097050921382262e+01  9.1421856478854707e+01  9.2753652806745436e+01  9.4092500078491952e+01  9.5438441551522715e+01  9.6791554804962146e+01  9.8151895157066434e+01  9.9519527648790671e+01  1.0089451804129256e+02  1.0227690620303230e+02  1.0366680541947525e+02  1.0506423787626565e+02  1.0646929343175889e+02  1.0788204068646851e+02  1.0930252484016911e+02  1.1073084952177301e+02  1.1216704140507007e+02  1.1361122142197053e+02  1.1506341510504446e+02  1.1652370916698072e+02  1.1799217743909803e+02  1.1946886171630156e+02  1.2095386747526386e+02  1.2244725436206961e+02  1.2394908915130614e+02  1.2545947256065932e+02  1.2697852677157545e+02  1.2850635318383729e+02  1.3004332509841973e+02  1.3158987465942459e+02  1.3314663831157000e+02  1.3471515400731826e+02  1.3629812344469900e+02  1.3790077747140890e+02  1.3953454500894594e+02  1.4122573036021410e+02  1.4305662352347031e+02  1.4703329124743379e+02  1.4787296884274502e+02  1.4841271379796370e+02  1.4878758131377046e+02  1.4905602621384651e+02  1.4925108509074121e+02  1.4939395430874481e+02  1.4949912871955198e+02  1.4957682745070289e+02  1.4963440438942916e+02  1.4967719702953445e+02  1.4970910511371477e+02  1.4973297776739523e+02  1.4975091270533991e+02  1.4976444831304360e+02  1.4977471655279780e+02  1.4978255241494060e+02  1.4978856900194063e+02  1.4979322374021487e+02  1.4979685299273459e+02  1.4979970732095273e+02  1.4980197199849650e+02  1.4980378648974903e+02  1.4980525338253059e+02  1.4980645084904475e+02  1.4980743749784173e+02  1.4980825783786199e+02  1.4980894481672314e+02  1.4980952501905048e+02  1.4981001808610321e+02  1.4981043909267990e+02  1.4981080011253724e+02  1.4981111053283493e+02  1.4981137776418893e+02  1.4981160770082624e+02  1.4981180505755759e+02  1.4981197362177187e+02  1.4981211644254779e+02  1.4981223597271278e+02  1.4981233417530532e+02  1.4981241260420074e+02  1.4981247246319950e+02  1.4981251464906495e+02  1.4981253978041011e+02  1.4981254822008975e+02  1.4981254008911455e+02  1.4981251525645666e+02  1.4981247337715627e+02  1.4981241382621172e+02  1.4981233570536483e+02  1.4981223780888030e+02  1.4981211856000928e+02  1.4981197602720985e+02  1.4981180776564605e+02  1.4981161075053851e+02  1.4981138119282011e+02  1.4981111424479411e+02  1.4981080403167769e+02  1.4981044316007990e+02  1.4981002223257474e+02  1.4980952947273957e+02  1.4980894951720151e+02  1.4980826253224615e+02  1.4980744231017016e+02  1.4980645553201916e+02  1.4980525752524173e+02  1.4980379041633881e+02  1.4980197539912066e+02  1.4979970905455050e+02  1.4979685278688120e+02  1.4979322032162599e+02  1.4978856115382035e+02  1.4978253789937850e+02  1.4977469390303648e+02  1.4976441496774743e+02  1.4975086240151475e+02  1.4973290642791366e+02  1.4970901098639658e+02  1.4967709056421316e+02  1.4963433171605845e+02  1.4957670644336545e+02  1.4949896084705856e+02  1.4939382942092263e+02  1.4925100244252641e+02  1.4905603134682798e+02  1.4878778410128658e+02  1.4841329122928136e+02  1.4787305029965367e+02  1.4702705882427622e+02  1.4305754141532623e+02  1.4122830649420683e+02  1.3953688803542801e+02  1.3790287255609752e+02  1.3630005010380722e+02  1.3471709953603607e+02  1.3314868011820994e+02  1.3159195872464142e+02  1.3004549300120999e+02  1.2850862248527770e+02  1.2698082666793034e+02  1.2546183536224491e+02  1.2395152778501769e+02  1.2244972662455554e+02  1.2095644509473330e+02  1.1947152046954031e+02  1.1799490284549492e+02  1.1652650911047959e+02  1.1506627815034190e+02  1.1361415288147069e+02  1.1217004346349570e+02  1.1073395636388737e+02  1.0930569011208847e+02  1.0788528859077337e+02  1.0647262755768554e+02  1.0506764121442970e+02  1.0367028531129273e+02  1.0228046452219704e+02  1.0089815665347560e+02  9.9523246074999037e+01  9.8155686239726691e+01  9.6795427419416882e+01  9.5442408889881406e+01  9.4096560044232888e+01  9.2757788342267432e+01  9.1426076136680422e+01  9.0101351462243969e+01  8.8783501150499916e+01  8.7472835660603778e+01  8.6168508780029654e+01  8.4871294039652383e+01  8.3580728275468360e+01  8.2296843570795176e+01  8.1019558318458479e+01  7.9748916486209211e+01  7.8484810045283183e+01  7.7227218528387169e+01  7.5976112199437253e+01  7.4731437950715772e+01  7.3493187824145693e+01  7.2261329085562622e+01  7.1035835637634236e+01  6.9816690068101991e+01  6.8603845072247708e+01  6.7397373433339610e+01  6.6197144910952773e+01  6.5003260411067302e+01  6.3815687962297588e+01  6.2634363644657277e+01  6.1459423353385304e+01  6.0290760942400844e+01  5.9128515230894834e+01  5.7972605851477056e+01  5.6823144652705473e+01  5.5680160616484038e+01  5.4543649093206099e+01  5.3413818339033583e+01  5.2290565883043328e+01  5.1174169034797998e+01  5.0064501244526362e+01  4.8961876837860146e+01  4.7866332481859118e+01  4.6778085557624550e+01  4.5697268926578509e+01  4.4623885576127037e+01  4.3558435609614172e+01  4.2500962201324242e+01  4.1451610534527532e+01  4.0410642733433434e+01  3.9377844563562888e+01  3.8353693061017104e+01  3.7337328284716733e+01  3.6327114195416875e+01  3.5320934204292087e+01  3.4313241812193347e+01  3.3293156663238271e+01  3.2235971694534378e+01  3.1094070049192577e+01  2.9709654120529034e+01  1.4571959364699757e+02  1.4586332658405746e+02  1.4904087130415755e+02  1.4913546010696967e+02  4.1989144998479667e+01  1.4973462821654687e+02  1.4965240611093586e+02  1.3078270453891093e+02  1.4958804650099421e+02  3.7872758102668826e+01  8.2918677491796714e+01  9.4777155731672750e+01  1.4950262214438612e+02  3.6864214474147786e+01  9.8833316970161746e+01  1.0158269078371123e+02  1.0436187710271429e+02  1.4938567987115363e+02  1.0718526587927792e+02  1.1148269883749492e+02  1.4922681504168119e+02  8.5516263139358230e+01  1.1578735230837162e+02  1.1873816725882143e+02  1.2318999685501180e+02  1.3709067630137955e+02  1.4900954872334756e+02  3.3882121563069511e+01  3.3892545064757769e+01  1.2620979075381912e+02  1.4202984604446408e+02  8.9438013286757425e+01  3.0787038471929002e+01  9.2086966467721865e+01  1.4695038860993725e+02  1.2763063442099735e+02  1.4687887023656501e+02  3.0784949091540376e+01  1.3069720701998233e+02  1.4829535077575437e+02  1.4829414055754108e+02  1.4378364591017569e+02  1.3395904753275883e+02  1.3868417026519637e+02  1.3391386752662140e+02  3.5867349172465147e+01  3.0784113706511476e+01  3.9912772392092904e+01  1.4978028136779295e+02  2.9327744595203637e+01  4.4100183034970684e+01  1.4993818511595509e+02  1.4980600122181363e+02  4.6243755061066338e+01  2.9842693407767879e+01  1.0709114420446195e+02  1.4996616902780599e+02  1.4982076800536865e+02  4.8417965506672232e+01  3.8897377765538167e+01  1.4982945275248898e+02  2.9872783791818900e+01  1.4996551190576514e+02  5.0621352678019790e+01  1.4983471486042848e+02  4.0955423130204295e+01  5.2852728109985790e+01  1.2459835337420220e+02  8.0381660815862730e+01  1.4983801535255535e+02  1.1279831062485432e+02  7.6552930998377391e+01  4.3062677665894647e+01  5.5111195773588484e+01  1.4995295665618127e+02  1.4984016415949645e+02  5.3970797876353956e+01  1.2158319605182172e+02  5.7396080508903509e+01  1.4996271539103927e+02  1.4984161639015085e+02  7.2833723853775481e+01  1.1712042529061900e+02  5.9706918691635678e+01  1.4984263159450683e+02  5.7381586089851581e+01  1.4995975223687219e+02  6.2043361608089775e+01  1.4984336100702049e+02  5.9688384553083466e+01  6.4405213838103990e+01  6.7964448119075982e+01  1.4984389459254419e+02  6.6792364276049099e+01  1.4984428750197713e+02  6.5567998746002289e+01  1.4996445923932822e+02  6.9204793807375708e+01  1.4984457431592026e+02  6.3197000255391707e+01  7.1642569633211963e+01  1.0992905250330816e+02  1.4984477710067668e+02  7.4105816069468787e+01  1.4984490989956498e+02  7.6594710467213844e+01  1.4984498125063209e+02  7.0386326700364677e+01  4.5176348693811967e+01  1.0428406428885046e+02  1.4996659463199310e+02  7.9109495061486228e+01  1.0150729145395118e+02  1.4996688064617285e+02  5.1730783492222940e+01  9.8760309926751205e+01  1.4996707937639718e+02  4.9518925464111376e+01  1.4996722114771748e+02  9.6042614894634198e+01  4.7336484820090668e+01  1.4996732393523592e+02  9.3353716745361126e+01  9.0693144662176323e+01  1.4996739866866739e+02  8.8060450098334897e+01  1.4996745213890276e+02  1.4984499551530189e+02  8.5455209290579958e+01  1.4996748858285181e+02  1.4996905770500595e+02  8.2877026480216173e+01  1.4611091848722884e+02  8.0325537784212230e+01  7.9064772142310559e+01  1.4991791627931300e+02  9.7401671880124283e+01  3.5064586699180261e+01  1.0993218245206764e+02  1.1424775352542127e+02  1.2763291118222267e+02  1.2160162853564297e+02  8.8064892235009552e+01  1.1716484062421914e+02  1.2460075551809041e+02  1.4967150303041234e+02  1.0568715026082577e+02  1.0289544326099374e+02  1.3999054972730818e+02  3.2478478833492993e+01  1.001337884615856