<?xml version="1.0"?>
<VTKFile type="UnstructuredGrid"  version="0.1"  >
<UnstructuredGrid>
<Piece  NumberOfPoints="11335" NumberOfCells="22258">
<Points>
<DataArray  type="Float64"  NumberOfComponents="3"  format="ascii">0 0 0  0 10 0  0.5 10 0  0.5 9.5 0  9.5 9.5 0  9.5 10 0  10 10 0  10 0 0  0.5 0.5 0  9.5 0.5 0  0 0.09999999999992584 0  0 0.199999999999856 0  0 0.2999999999997771 0  0 0.3999999999996677 0  0 0.4999999999995511 0  0 0.5999999999994683 0  0 0.6999999999993983 0  0 0.7999999999993286 0  0 0.8999999999992587 0  0 0.9999999999991888 0  0 1.099999999999119 0  0 1.199999999999033 0  0 1.299999999998852 0  0 1.399999999998576 0  0 1.499999999998284 0  0 1.599999999997992 0  0 1.6999999999977 0  0 1.799999999997408 0  0 1.899999999997116 0  0 1.999999999996825 0  0 2.099999999996533 0  0 2.199999999996241 0  0 2.299999999995949 0  0 2.399999999995657 0  0 2.499999999995365 0  0 2.599999999995073 0  0 2.699999999994782 0  0 2.79999999999449 0  0 2.899999999994198 0  0 2.999999999993906 0  0 3.099999999993614 0  0 3.199999999993322 0  0 3.299999999993029 0  0 3.399999999992738 0  0 3.499999999992446 0  0 3.599999999992154 0  0 3.699999999991863 0  0 3.799999999991571 0  0 3.899999999991278 0  0 3.999999999991022 0  0 4.099999999991035 0  0 4.199999999991187 0  0 4.299999999991338 0  0 4.399999999991491 0  0 4.499999999991642 0  0 4.599999999991795 0  0 4.699999999991947 0  0 4.799999999992099 0  0 4.89999999999225 0  0 4.999999999992403 0  0 5.099999999992555 0  0 5.199999999992706 0  0 5.299999999992858 0  0 5.39999999999301 0  0 5.499999999993161 0  0 5.599999999993313 0  0 5.699999999993466 0  0 5.799999999993618 0  0 5.899999999993771 0  0 5.999999999993922 0  0 6.099999999994074 0  0 6.199999999994227 0  0 6.299999999994378 0  0 6.39999999999453 0  0 6.499999999994682 0  0 6.599999999994833 0  0 6.699999999994986 0  0 6.799999999995138 0  0 6.899999999995289 0  0 6.999999999995442 0  0 7.099999999995594 0  0 7.199999999995747 0  0 7.299999999995897 0  0 7.39999999999605 0  0 7.499999999996202 0  0 7.599999999996353 0  0 7.699999999996505 0  0 7.799999999996658 0  0 7.899999999996808 0  0 7.999999999996962 0  0 8.099999999997113 0  0 8.199999999997265 0  0 8.299999999997418 0  0 8.399999999997569 0  0 8.499999999997721 0  0 8.599999999997873 0  0 8.699999999998024 0  0 8.799999999998176 0  0 8.899999999998329 0  0 8.999999999998479 0  0 9.099999999998634 0  0 9.199999999998786 0  0 9.299999999998937 0  0 9.399999999999089 0  0 9.499999999999241 0  0 9.599999999999392 0  0 9.699999999999545 0  0 9.799999999999697 0  0 9.899999999999848 0  0.09999999999977893 10 0  0.1999999999994874 10 0  0.2999999999994734 10 0  0.3999999999997367 10 0  0.5 9.9 0  0.5 9.800000000000001 0  0.5 9.699999999999999 0  0.5 9.6 0  0.5999999999997725 9.5 0  0.6999999999995451 9.5 0  0.7999999999993451 9.5 0  0.8999999999991337 9.5 0  0.9999999999989062 9.5 0  1.099999999998702 9.5 0  1.199999999998578 9.5 0  1.299999999998473 9.5 0  1.39999999999837 9.5 0  1.499999999998266 9.5 0  1.599999999998133 9.5 0  1.699999999997873 9.5 0  1.799999999997521 9.5 0  1.899999999997171 9.5 0  1.99999999999682 9.5 0  2.099999999996469 9.5 0  2.199999999996118 9.5 0  2.299999999995767 9.5 0  2.399999999995416 9.5 0  2.499999999995065 9.5 0  2.599999999994715 9.5 0  2.699999999994364 9.5 0  2.799999999994013 9.5 0  2.899999999993662 9.5 0  2.999999999993312 9.5 0  3.099999999992961 9.5 0  3.19999999999261 9.5 0  3.299999999992259 9.5 0  3.399999999991908 9.5 0  3.499999999991557 9.5 0  3.599999999991207 9.5 0  3.699999999990856 9.5 0  3.799999999990505 9.5 0  3.899999999990154 9.5 0  3.999999999989803 9.5 0  4.099999999989453 9.5 0  4.199999999989102 9.5 0  4.299999999988751 9.5 0  4.3999999999884 9.5 0  4.49999999998805 9.5 0  4.599999999987698 9.5 0  4.699999999987348 9.5 0  4.799999999986997 9.5 0  4.899999999986646 9.5 0  4.999999999986469 9.5 0  5.099999999986931 9.5 0  5.199999999987567 9.5 0  5.299999999988204 9.5 0  5.39999999998884 9.5 0  5.499999999989477 9.5 0  5.599999999990114 9.5 0  5.69999999999075 9.5 0  5.799999999991387 9.5 0  5.899999999992023 9.5 0  5.999999999992659 9.5 0  6.099999999993296 9.5 0  6.199999999993933 9.5 0  6.299999999994569 9.5 0  6.399999999995206 9.5 0  6.499999999995842 9.5 0  6.599999999996479 9.5 0  6.699999999997114 9.5 0  6.799999999997752 9.5 0  6.899999999998387 9.5 0  6.999999999999023 9.5 0  7.099999999999659 9.5 0  7.200000000000294 9.5 0  7.300000000000929 9.5 0  7.400000000001565 9.5 0  7.5000000000022 9.5 0  7.600000000002836 9.5 0  7.700000000003472 9.5 0  7.800000000004108 9.5 0  7.900000000004743 9.5 0  8.000000000005148 9.5 0  8.100000000004911 9.5 0  8.200000000004561 9.5 0  8.300000000004211 9.5 0  8.400000000003859 9.5 0  8.500000000003508 9.5 0  8.600000000003158 9.5 0  8.700000000002806 9.5 0  8.800000000002456 9.5 0  8.900000000002105 9.5 0  9.000000000001755 9.5 0  9.100000000001405 9.5 0  9.200000000001053 9.5 0  9.300000000000701 9.5 0  9.40000000000035 9.5 0  9.5 9.6 0  9.5 9.699999999999999 0  9.5 9.800000000000001 0  9.5 9.9 0  9.6 10 0  9.699999999999999 10 0  9.800000000000001 10 0  9.9 10 0  10 9.9 0  10 9.799999999999999 0  10 9.699999999999999 0  10 9.6 0  10 9.499999999999998 0  10 9.399999999999999 0  10 9.299999999999999 0  10 9.199999999999999 0  10 9.099999999999998 0  10 8.999999999999998 0  10 8.899999999999999 0  10 8.799999999999997 0  10 8.699999999999998 0  10 8.599999999999998 0  10 8.499999999999996 0  10 8.399999999999997 0  10 8.299999999999997 0  10 8.199999999999998 0  10 8.099999999999998 0  10 7.999999999999997 0  10 7.899999999999997 0  10 7.799999999999997 0  10 7.699999999999998 0  10 7.599999999999998 0  10 7.499999999999998 0  10 7.399999999999997 0  10 7.299999999999997 0  10 7.199999999999998 0  10 7.099999999999998 0  10 6.999999999999997 0  10 6.899999999999998 0  10 6.799999999999997 0  10 6.699999999999998 0  10 6.599999999999998 0  10 6.499999999999998 0  10 6.399999999999997 0  10 6.299999999999998 0  10 6.199999999999998 0  10 6.099999999999998 0  10 5.999999999999997 0  10 5.899999999999998 0  10 5.799999999999998 0  10 5.699999999999998 0  10 5.599999999999998 0  10 5.499999999999998 0  10 5.399999999999999 0  10 5.299999999999999 0  10 5.199999999999998 0  10 5.099999999999999 0  10 4.999999999999999 0  10 4.899999999999998 0  10 4.799999999999999 0  10 4.699999999999998 0  10 4.599999999999999 0  10 4.499999999999998 0  10 4.399999999999999 0  10 4.299999999999998 0  10 4.199999999999999 0  10 4.099999999999998 0  10 3.999999999999999 0  10 3.899999999999999 0  10 3.799999999999999 0  10 3.699999999999999 0  10 3.599999999999999 0  10 3.499999999999997 0  10 3.399999999999998 0  10 3.299999999999999 0  10 3.199999999999998 0  10 3.099999999999998 0  10 2.999999999999999 0  10 2.899999999999999 0  10 2.799999999999998 0  10 2.699999999999998 0  10 2.599999999999998 0  10 2.499999999999999 0  10 2.399999999999999 0  10 2.299999999999999 0  10 2.199999999999999 0  10 2.1 0  10 1.999999999999998 0  10 1.899999999999999 0  10 1.799999999999999 0  10 1.699999999999999 0  10 1.6 0  10 1.5 0  10 1.4 0  10 1.299999999999999 0  10 1.199999999999999 0  10 1.099999999999998 0  10 0.9999999999999982 0  10 0.9000000000000004 0  10 0.7999999999999989 0  10 0.6999999999999993 0  10 0.6000000000000014 0  10 0.5 0  10 0.3999999999999986 0  10 0.2999999999999989 0  10 0.1999999999999993 0  10 0.09999999999999964 0  9.9 0 0  9.799999999999999 0 0  9.699999999999999 0 0  9.6 0 0  9.499999999999998 0 0  9.399999999999999 0 0  9.299999999999999 0 0  9.199999999999999 0 0  9.099999999999998 0 0  8.999999999999998 0 0  8.899999999999999 0 0  8.799999999999997 0 0  8.699999999999998 0 0  8.599999999999998 0 0  8.499999999999996 0 0  8.399999999999997 0 0  8.299999999999997 0 0  8.199999999999998 0 0  8.099999999999998 0 0  7.999999999999997 0 0  7.899999999999997 0 0  7.799999999999997 0 0  7.699999999999998 0 0  7.599999999999998 0 0  7.499999999999998 0 0  7.399999999999997 0 0  7.299999999999997 0 0  7.199999999999998 0 0  7.099999999999998 0 0  6.999999999999997 0 0  6.899999999999998 0 0  6.799999999999997 0 0  6.699999999999998 0 0  6.599999999999998 0 0  6.499999999999998 0 0  6.399999999999997 0 0  6.299999999999998 0 0  6.199999999999998 0 0  6.099999999999998 0 0  5.999999999999997 0 0  5.899999999999998 0 0  5.799999999999998 0 0  5.699999999999998 0 0  5.599999999999998 0 0  5.499999999999998 0 0  5.399999999999999 0 0  5.299999999999999 0 0  5.199999999999998 0 0  5.099999999999999 0 0  4.999999999999999 0 0  4.899999999999998 0 0  4.799999999999999 0 0  4.699999999999998 0 0  4.599999999999999 0 0  4.499999999999998 0 0  4.399999999999999 0 0  4.299999999999998 0 0  4.199999999999999 0 0  4.099999999999998 0 0  3.999999999999999 0 0  3.899999999999999 0 0  3.799999999999999 0 0  3.699999999999999 0 0  3.599999999999999 0 0  3.499999999999997 0 0  3.399999999999998 0 0  3.299999999999999 0 0  3.199999999999998 0 0  3.099999999999998 0 0  2.999999999999999 0 0  2.899999999999999 0 0  2.799999999999998 0 0  2.699999999999998 0 0  2.599999999999998 0 0  2.499999999999999 0 0  2.399999999999999 0 0  2.299999999999999 0 0  2.199999999999999 0 0  2.1 0 0  1.999999999999998 0 0  1.899999999999999 0 0  1.799999999999999 0 0  1.699999999999999 0 0  1.6 0 0  1.5 0 0  1.4 0 0  1.299999999999999 0 0  1.199999999999999 0 0  1.099999999999998 0 0  0.9999999999999982 0 0  0.9000000000000004 0 0  0.7999999999999989 0 0  0.6999999999999993 0 0  0.6000000000000014 0 0  0.5 0 0  0.3999999999999986 0 0  0.2999999999999989 0 0  0.1999999999999993 0 0  0.09999999999999964 0 0  9.5 9.400000000000382 0  9.5 9.300000000000763 0  9.5 9.200000000001145 0  9.5 9.100000000001527 0  9.5 9.000000000001908 0  9.5 8.90000000000229 0  9.5 8.800000000002671 0  9.5 8.700000000003053 0  9.5 8.600000000003435 0  9.5 8.500000000003816 0  9.5 8.400000000004198 0  9.5 8.30000000000458 0  9.5 8.200000000004961 0  9.5 8.100000000005343 0  9.5 8.000000000005723 0  9.5 7.90000000000610
[...]
<PointData  Scalars="f_19"> 
<DataArray  type="Float64"  Name="f_19"  format="ascii">1.5000000000000000e+02  2.5917968556263837e+01  2.5727214575180160e+01  2.3457593398099242e+01  2.3467522259704033e+01  2.5717208660533974e+01  2.5908017682410797e+01  1.5000000000000000e+02  1.4481059754459716e+02  1.4481044041935019e+02  1.4861018851679074e+02  1.4724153413750420e+02  1.4583916351581772e+02  1.4437515851594790e+02  1.4283673818762534e+02  1.4122489885352581e+02  1.3955307697002428e+02  1.3784009166487854e+02  1.3610342505743353e+02  1.3435614572620005e+02  1.3260680730544669e+02  1.3086062720522742e+02  1.2912072145261251e+02  1.2738893877508539e+02  1.2566640670960831e+02  1.2395383796654662e+02  1.2225171512843609e+02  1.2056038178427335e+02  1.1888010173638510e+02  1.1721108552414773e+02  1.1555351670231875e+02  1.1390753762665982e+02  1.1227328211236402e+02  1.1065088007121048e+02  1.0904044145513464e+02  1.0744207301075130e+02  1.0585584850432510e+02  1.0428185364936799e+02  1.0272016683506686e+02  1.0117083669549081e+02  9.9633921394179723e+01  9.8109468978553352e+01  9.6597518651467681e+01  9.5098100230342951e+01  9.3611235366345753e+01  9.2136941735570801e+01  9.0675227373881626e+01  8.9226099892431691e+01  8.7789540839004061e+01  8.6365536055708006e+01  8.4954072141237759e+01  8.3555123917496090e+01  8.2168658668957633e+01  8.0794635898438742e+01  7.9433009324954625e+01  7.8083724809055411e+01  7.6746711228032794e+01  7.5421996291733308e+01  7.4109433965475517e+01  7.2808923062227180e+01  7.1520454111003403e+01  7.0243924372260182e+01  6.8979146488824014e+01  6.7726671332821979e+01  6.6485068334622795e+01  6.5255574524227924e+01  6.4037477252788065e+01  6.2830775629452226e+01  6.1635378637943404e+01  6.0451187538551366e+01  5.9278102425224567e+01  5.8116022775016113e+01  5.6964842011657133e+01  5.5824368632273838e+01  5.4695084042861360e+01  5.3575674394012680e+01  5.2467253267226049e+01  5.1369164182808944e+01  5.0281321286766918e+01  4.9204208584977700e+01  4.8136585229818067e+01  4.7079548266800387e+01  4.6032505197322315e+01  4.4995499241736020e+01  4.3968511231029353e+01  4.2951533948831027e+01  4.1944579646552512e+01  4.0947673168500494e+01  3.9960908737399919e+01  3.8984446312191672e+01  3.8018428919289761e+01  3.7063053508394688e+01  3.6118678382034069e+01  3.5185864572591640e+01  3.4265330493247951e+01  3.3358157695137706e+01  3.2465983996252348e+01  3.1591337693798501e+01  3.0738199418109335e+01  2.9912916223194419e+01  2.9125210375265475e+01  2.8389391387131475e+01  2.7726476671029815e+01  2.7163614698074753e+01  2.6710621161338405e+01  2.6382715615598212e+01  2.6161342538158685e+01  2.6024221783479252e+01  2.5948266185214976e+01  2.5910327496782440e+01  2.5868436057879382e+01  2.5809668408742859e+01  2.5754643490900001e+01  2.5719616937134205e+01  2.5659863663388052e+01  2.5494577733359755e+01  2.5066761079407250e+01  -4.9731846845179177e+00  4.4289868345024280e-01  -8.4990417031468668e-01  -6.8732644400098530e-01  -7.8006343304428116e-01  -8.0195077297561568e-01  -8.2704190076472606e-01  -8.4450971779807338e-01  -8.5884854742542827e-01  -8.7053959556681149e-01  -8.8037013494829930e-01  -8.8877034384026998e-01  -8.9606048590780862e-01  -9.0246593866945424e-01  -9.0815320738405347e-01  -9.1324708407796329e-01  -9.1784299800764779e-01  -9.2201506487333296e-01  -9.2582167230061341e-01  -9.2930939601320317e-01  -9.3251580835765036e-01  -9.3547152547933443e-01  -9.3820172310275640e-01  -9.4072727441205028e-01  -9.4306561498031616e-01  -9.4523140765646507e-01  -9.4723705889386089e-01  -9.4909312340421581e-01  -9.5080862391742182e-01  -9.5239130573374942e-01  -9.5384784070545636e-01  -9.5518399164578505e-01  -9.5640474550941079e-01  -9.5751442173139456e-01  -9.5851676065336444e-01  -9.5941499586773127e-01  -9.6021191347611390e-01  -9.6090990061716697e-01  -9.6151098512203803e-01  -9.6201686776596018e-01  -9.6242894827560477e-01  -9.6274834600344283e-01  -9.6297591597793941e-01  -9.6311226086975332e-01  -9.6315773927102877e-01  -9.6311247055943761e-01  -9.6297633650548153e-01  -9.6274897967517326e-01  -9.6242979857615829e-01  -9.6201793938907332e-01  -9.6151228401262512e-01  -9.6091143402566626e-01  -9.6021369002630752e-01  -9.5941702563965037e-01  -9.5851905528328152e-01  -9.5751699453142802e-01  -9.5640761160981669e-01  -9.5518716816386884e-01  -9.5385134694584939e-01  -9.5239516342612196e-01  -9.5081285749909861e-01  -9.4909776035722726e-01  -9.4724213014842995e-01  -9.4523694807632319e-01  -9.4307166394979891e-01  -9.4073387655081520e-01  -9.3820892914251330e-01  -9.3547939334831209e-01  -9.3252440453504060e-01  -9.2931879723921773e-01  -9.2583196776208132e-01  -9.2202635903622654e-01  -9.1785541434458773e-01  -9.1326077005751471e-01  -9.0816834127620849e-01  -9.0248273899084186e-01  -8.9607922488639435e-01  -8.8879136649405854e-01  -8.8039388902599103e-01  -8.7056666719454623e-01  -8.5887976260461818e-01  -8.4454607767716738e-01  -8.2708565969205294e-01  -8.0200166003499351e-01  -7.8014098162358037e-01  -6.8736224581882110e-01  -8.5016573913752225e-01  4.4310504460154421e-01  -4.9757420940040262e+00  2.5050367697068509e+01  2.5488006286911386e+01  2.5648629932470623e+01  2.5709295532308172e+01  2.5744927731762633e+01  2.5800005079617726e+01  2.5858884122652771e+01  2.5900489455023607e+01  2.5938351183511145e+01  2.6014443773195026e+01  2.6151044164502444e+01  2.6373088823677147e+01  2.6702491385129949e+01  2.7152672164831550e+01  2.7718585747504825e+01  2.8381265420165697e+01  2.9116359959469026e+01  2.9904154112874590e+01  3.0729629133179355e+01  3.1582863412649949e+01  3.2457638940204582e+01  3.3349950020917099e+01  3.4257261923794431e+01  3.5177931527571808e+01  3.6110872911231809e+01  3.7055351680984550e+01  3.8010861134185646e+01  3.8977046915923360e+01  3.9953660227406850e+01  4.0940528000988323e+01  4.1937533326796860e+01  4.2944602162582306e+01  4.3961693950696407e+01  4.4988794788124345e+01  4.6025912369359730e+01  4.7073072152401743e+01  4.8130314334381247e+01  4.9197691382256991e+01  5.0275265984768758e+01  5.1363109337187346e+01  5.2461299686485475e+01  5.3569921084614030e+01  5.4689062312341846e+01  5.5818815937618581e+01  5.6959277471789065e+01  5.8110544596457693e+01  5.9272716453677290e+01  6.0445893008473895e+01  6.1630174486660621e+01  6.2825660865872159e+01  6.4032451386591191e+01  6.5250644073693664e+01  6.6480335289379710e+01  6.7721619336094790e+01  6.8974588100164596e+01  7.0239330707986113e+01  7.1515933175735654e+01  7.2804478059828170e+01  7.4105044126451631e+01  7.5417706042606838e+01  7.6742534077578966e+01  7.8079593814414906e+01  7.9428945884594867e+01  8.0790645730190079e+01  8.2164743380161767e+01  8.3551283226143937e+01  8.4950303792745061e+01  8.6361837506864504e+01  8.7785910482855527e+01  8.9222542340738315e+01  9.0671746046620882e+01  9.2133527745086283e+01  9.3607886584298370e+01  9.5094814568878732e+01  9.6594296436615025e+01  9.8106309500501197e+01  9.9630823439957510e+01  1.0116780009364260e+02  1.0271719329737692e+02  1.0427894887929146e+02  1.0585300439496288e+02  1.0743928752856372e+02  1.0903770897164024e+02  1.1064819379214455e+02  1.1227064749699517e+02  1.1390500029968349e+02  1.1555101172832076e+02  1.1720865058631371e+02  1.1887773326816340e+02  1.2055805326776529e+02  1.2224943536373837e+02  1.2395160931251527e+02  1.2566425796867235e+02  1.2738681365898906e+02  1.2911863067705971e+02  1.3085862006593348e+02  1.3260486517790505e+02  1.3435427028291804e+02  1.3610162313581353e+02  1.3783841216028407e+02  1.3955157303428894e+02  1.4122307100766133e+02  1.4283504126487333e+02  1.4437292371372135e+02  1.4583857967613625e+02  1.4724110992888717e+02  1.4860972940636765e+02  1.5000000000000000e+02  1.5000000000000000e+02  1.5000000000000000e+02  1.5000000000000000e+02  1.5000000000000000e+02  1.5000000000000003e+02  1.5000000000000000e+02  1.5000000000000000e+02  1.5000000000000000e+02  1.5000000000000000e+02  1.5000000000000000e+02  1.5000000000000000e+02  1.5000000000000000e+02  1.5000000000000003e+02  1.5000000000000003e+02  1.5000000000000000e+02  1.5000000000000000e+02  1.5000000000000000e+02  1.5000000000000000e+02  1.4999999999999997e+02  1.5000000000000000e+02  1.5000000000000000e+02  1.5000000000000000e+02  1.5000000000000000e+02  1.5000000000000000e+02  1.5000000000000000e+02  1.5000000000000000e+02  1.5000000000000000e+02  1.5000000000000000e+02  1.5000000000000000e+02  1.5000000000000000e+02  1.5000000000000000e+02  1.5000000000000000e+02  1.5000000000000000e+02  1.5000000000000000e+02  1.5000000000000000e+02  1.5000000000000000e+02  1.5000000000000000e+02  1.5000000000000000e+02  1.5000000000000000e+02  1.5000000000000000e+02  1.5000000000000000e+02  1.5000000000000000e+02  1.5000000000000000e+02  1.5000000000000000e+02  1.5000000000000000e+02  1.5000000000000000e+02  1.5000000000000000e+02  1.5000000000000000e+02  1.5000000000000000e+02  1.5000000000000000e+02  1.5000000000000000e+02  1.4999999999999997e+02  1.5000000000000000e+02  1.5000000000000000e+02  1.5000000000000000e+02  1.5000000000000000e+02  1.5000000000000000e+02  1.4999999999999997e+02  1.5000000000000000e+02  1.5000000000000000e+02  1.5000000000000000e+02  1.5000000000000000e+02  1.5000000000000000e+02  1.5000000000000000e+02  1.5000000000000000e+02  1.5000000000000000e+02  1.5000000000000000e+02  1.5000000000000000e+02  1.5000000000000000e+02  1.5000000000000000e+02  1.5000000000000000e+02  1.5000000000000000e+02  1.5000000000000000e+02  1.5000000000000000e+02  1.5000000000000000e+02  1.5000000000000000e+02  1.5000000000000000e+02  1.5000000000000000e+02  1.5000000000000000e+02  1.5000000000000000e+02  1.5000000000000000e+02  1.5000000000000000e+02  1.5000000000000000e+02  1.5000000000000000e+02  1.5000000000000000e+02  1.4999999999999997e+02  1.5000000000000000e+02  1.5000000000000000e+02  1.5000000000000000e+02  1.5000000000000000e+02  1.5000000000000000e+02  1.5000000000000000e+02  1.5000000000000000e+02  1.5000000000000000e+02  1.5000000000000000e+02  1.5000000000000000e+02  1.5000000000000000e+02  1.5000000000000000e+02  2.5509260806375838e+01  2.6747719752155778e+01  2.7770405095522165e+01  2.8714874718499100e+01  2.9626852290975641e+01  3.0528597456895632e+01  3.1430205654136202e+01  3.2336809496580365e+01  3.3250600419231098e+01  3.4172983079916470e+01  3.5104871590433255e+01  3.6046258286081901e+01  3.6997334265378562e+01  3.7958254175476995e+01  3.8928756090879929e+01  3.9909099810950181e+01  4.0899094513576735e+01  4.1898800254611686e+01  4.2908229839677666e+01  4.3927406825998354e+01  4.4956395789486855e+01  4.5995186375884366e+01  4.7043887528470286e+01  4.8102536629527648e+01  4.9171229459133116e+01  5.0250035897779043e+01  5.1339048243866081e+01  5.2438362186073043e+01  5.3548071215703359e+01  5.4668275542745334e+01  5.5799079819618406e+01  5.6940583092092787e+01  5.8092900488022828e+01  5.9256134607638110e+01  6.0430396282801411e+01  6.1615787674679424e+01  6.2812409412575470e+01  6.4020378586308638e+01  6.5239793369448364e+01  6.6470758632546776e+01  6.7713368121620476e+01  6.8967720814749470e+01  7.0233903680732794e+01  7.1512020209163410e+01  7.2802148622173561e+01  7.4104373225400963e+01  7.5418772026579504e+01  7.6745417672793153e+01  7.8084388896289852e+01  7.9435735808222660e+01  8.0799524622565997e+01  8.2175805585150599e+01  8.3564625681188758e+01  8.4966028291342440e+01  8.6380043852883418e+01  8.7806718845497883e+01  8.9246046884619361e+01  9.0698060120558594e+01  9.2162763029626248e+01  9.3640156405235473e+01  9.5130264404628647e+01  9.6632972157903453e+01  9.8148404239868242e+01  9.9676419924558786e+01  1.0121702327047593e+02  1.0277021860510284e+02  1.0433581270355758e+02  1.0591392331208328e+02  1.0750429856081044e+02  1.0910705983583070e+02  1.1072197021489043e+02  1.1234898975955551e+02  1.1398807413962140e+02  1.1563898092315524e+02  1.1730171440519727e+02  1.1897614944294725e+02  1.2066211882525565e+02  1.2235954155919593e+02  1.2406835827824442e+02  1.2578836784427634e+02  1.2751983548281460e+02  1.2926310152750281e+02  1.3101847010845202e+02  1.3278750128246884e+02  1.3457297419118785e+02  1.3638047290771937e+02  1.3822264190071576e+02  1.4012849624650636e+02  1.4219022806113054e+02  1.4665595715165765e+02  1.4759420706789567e+02  1.4819517356041570e+02  1.4861074864164522e+02  1.4890668079064901e+02  1.4912014780307376e+02  1.4927499259884723e+02  1.4938752835220731e+02  1.4946925688739921e+02  1.4952845594361037e+02  1.4957113666742745e+02  1.4960168736948734e+02  1.4962332515843354e+02  1.4963840809630221e+02  1.4964867116439910e+02  1.4965539211225570e+02  1.4965951155762176e+02  1.4966173039163249e+02  1.4966256033882792e+02  1.4966238529447662e+02  1.4966148782676774e+02  1.4966008113874636e+02  1.4965832042903938e+02  1.4965632833930363e+02  1.4965419297926690e+02  1.4965198190806930e+02  1.4964974569393954e+02  1.4964752660940891e+02  1.4964535299041358e+02  1.4964324647255984e+02  1.4964122811820249e+02  1.4963931132755411e+02  1.4963750735465524e+02  1.4963582519718608e+02  1.4963427204575484e+02  1.4963285367248912e+02  1.4963157472694337e+02  1.4963043895952427e+02  1.4962944939044820e+02  1.4962860843953419e+02  1.4962791801510207e+02  1.4962737958996112e+02  1.4962699425762088e+02  1.4962676279023023e+02  1.4962668564431158e+02  1.4962676295906215e+02  1.4962699468929472e+02  1.4962738021223652e+02  1.4962791881676645e+02  1.4962860942116475e+02  1.4962945056772185e+02  1.4963044054168927e+02  1.4963157658674086e+02  1.4963285568048011e+02  1.4963427387154260e+02  1.4963582653997665e+02  1.4963750901878700e+02  1.4963931368815349e+02  1.4964123133120495e+02  1.4964325066958617e+02  1.4964535625882087e+02  1.4964752990748795e+02  1.4964974855516783e+02  1.4965198412865763e+02  1.4965419496920762e+02  1.4965633075408297e+02  1.4965832077641440e+02  1.4966007928096528e+02  1.4966148567287837e+02  1.4966238100278687e+02  1.4966255342942799e+02  1.4966171867322862e+02  1.4965949440745752e+02  1.4965536516107784e+02  1.4964862977339050e+02  1.4963834664897291e+02  1.4962324061497756e+02  1.4960157898491181e+02  1.4957101109363765e+02  1.4952836319263349e+02  1.4946910730212090e+02  1.4938732996578284e+02  1.4927484732786962e+02  1.4912004623089578e+02  1.4890667868556943e+02  1.4861096789594998e+02  1.4819581419960824e+02  1.4759426153468596e+02  1.4664893247283638e+02  1.4219112901824320e+02  1.4013127063594814e+02  1.3822509931882666e+02  1.3638265848388818e+02  1.3457493756883093e+02  1.3278944957992306e+02  1.3102050232900424e+02  1.2926517113642092e+02  1.2752197082381066e+02  1.2579059379647946e+02  1.2407058450053242e+02  1.2236181392749009e+02  1.2066446372077344e+02  1.1897846349642420e+02  1.1730419522913996e+02  1.1564148542125919e+02  1.1399060369333699e+02  1.1235161351298456e+02  1.1072464308650486e+02  1.0910976633905426e+02  1.0750705521820224e+02  1.0591678976730371e+02  1.0433871296238935e+02  1.0277318768178169e+02  1.0122006818669277e+02  9.9679514849635666e+01  9.8151560238032374e+01  9.6636190221854676e+01  9.5133548508350614e+01  9.3643505193904517e+01  9.2166164001109308e+01  9.0701525920885530e+01  8.9249601058762693e+01  8.7810358104509788e+01  8.6383737588145095e+01  8.4969790332295332e+01  8.3568449899557820e+01  8.2179580503212264e+01  8.0803800131979543e+01  7.9439649663776279e+01  7.8088516317358994e+01  7.6749650280424632e+01  7.5423072346160680e+01  7.4108699643642368e+01  7.2806586093141235e+01  7.1516541798318045e+01  7.0238507624239318e+01  6.8972401740858729e+01  6.7718132970246430e+01  6.6475609614435101e+01  6.5244732823862094e+01  6.4025403824573985e+01  6.2817521465350730e+01  6.1620986443571951e+01  6.0435684466583126e+01  5.9261519031199931e+01  5.8098376301748871e+01  5.6946151457433977e+01  5.5804744999008122e+01  5.4674038319758452e+01  5.3553931360341167e+01  5.2444319016570994e+01  5.1345105730132737e+01  5.0256195978585545e+01  4.9177494324933953e+01  4.8108908061649238e+01  4.7050366507082551e+01  4.6001772557438493e+01  4.4963094493552020e+01  4.3934215864685221e+01  4.2915147268922127e+01  4.1905822938824009e+01  4.0906242093774182e+01  3.9916378201427484e+01  3.8936141323825403e+01  3.7965743564662993e+01  3.7005068807378528e+01  3.6054071975037466e+01  3.5112825223010169e+01  3.4181025423346206e+01  3.3258803315214443e+01  3.2345284181345399e+01  3.1438874026047408e+01  3.0537437487427095e+01  2.9635863729768687e+01  2.8724235617576070e+01  2.7780349630099440e+01  2.6761410197212140e+01  2.5526321015095153e+01  1.4520266306707589e+02  1.4536342470065097e+02  1.4892284277151791e+02  1.4902900457850328e+02  3.6549924678377891e+01  1.4964503514792153e+02  1.4956155525004081e+02  1.2836209476383934e+02  1.4949347428674147e+02  3.2832630690269575e+01  7.6088188789917055e+01  8.8560064482929590e+01  1.4940243193687343e+02  3.1925856250325211e+01  9.2920474559684934e+01  9.5899357998215336e+01  9.8928752384348286e+01  1.4927568211626524e+02  1.0202275054323783e+02  1.0676315529101169e+02  1.4910186181118954e+02  7.8783691025031487e+01  1.1154485268330890e+02  1.1483633116744436e+02  1.1982277037353829e+02  1.3547199320726128e+02  1.4886239652380482e+02  2.9254022104338535e+01  2.9263254399513965e+01  1.2321484201386522e+02  1.4103684866987987e+02  8.2892757149346082e+01  2.6489143640358709e+01  8.5694690698516212e+01  1.4656606590847957e+02  1.2484637067194008e+02  1.4648582811635436e+02  2.6487145421093928e+01  1.2829519982656524e+02  1.4806904759595079e+02  1.4806770755084293e+02  1.4301038350798902e+02  1.3194117492307322e+02  1.3726812516531160e+02  1.3189104258010084e+02  3.1031734589560656e+01  2.6488295953369445e+01  3.4671044378235557e+01  1.4968777190254787e+02  2.5186794460111290e+01  3.8469135534347508e+01  1.4991869556988959e+02  1.4970850659896939e+02  4.0428109370594051e+01  2.5646905738503342e+01  1.0197197352530536e+02  1.4994016789297160e+02  1.4971736651477610e+02  4.2426469193670009e+01  3.3754968347035600e+01  1.4971985777089677e+02  2.5673713360525639e+01  1.4994068743255863e+02  4.4464149306621366e+01  1.4971899046313266e+02  3.5613295171270337e+01  4.6541326556218223e+01  1.2144068585996754e+02  7.3477988324676090e+01  1.4971642441043517e+02  1.0827030647864831e+02  6.9630204352147956e+01  3.7524260606686141e+01  4.8658385493631251e+01  1.4993415035002096e+02  1.4971308716573890e+02  4.7619948663857492e+01  1.1806131012232899e+02  5.0815873798486550e+01  1.4994037917407741e+02  1.4970950242501161e+02  6.5887823850132364e+01  1.1307560631314341e+02  5.3014453285967612e+01  1.4970597259930065e+02  5.0838145015137499e+01  1.4993861335138553e+02  5.5254864938229197e+01  1.4970267432981956e+02  5.3035041387605240e+01  5.7537902990976875e+01  6.1059212712443930e+01  1.4969971565009462e+02  5.9864398429470747e+01  1.4969716277647362e+02  5.8712279784527389e+01  1.4994086993702973e+02  6.2235186725000126e+01  1.4969505779358323e+02  5.6409216171791435e+01  6.4651099669344134e+01  1.0509659726589406e+02  1.4969342773806085e+02  6.7112954627540702e+01  1.4969228988474779e+02  6.9621527062141084e+01  1.4969165463935542e+02  6.3450785703695075e+01  3.9451019251188207e+01  9.8896932891231856e+01  1.4993949869819059e+02  7.2177555397719729e+01  9.5871844594768604e+01  1.4993878558965946e+02  4.5525115093748930e+01  9.2896951305363018e+01  1.4993808919953503e+02  4.3470430724994230e+01  1.4993744509825802e+02  8.9972375154381339e+01  4.1455811605974660e+01  1.4993687471897834e+02  8.7098122956783783e+01  8.4274090948470501e+01  1.4993639119479278e+02  8.1500070137548860e+01  1.4993600271410233e+02  1.4969152743617710e+02  7.8775752229931427e+01  1.4993571463698248e+02  1.4993859910810045e+02  7.6100736854236033e+01  1.4562645614687045e+02  7.3474538785652314e+01  7.2184054582050223e+01  1.4989806022502839e+02  9.1431816647849232e+01  3.0320550921869600e+01  1.0509947156709978e+02  1.0987806008440789e+02  1.2484858696863542e+02  1.1808115960360648e+02  8.1504024753972416e+01  1.1312404553730744e+02  1.2144299119476993e+02  1.4962663529052688e+02  1.0043129809151903e+02  9.73